 Gaussian 16, Revision A.03,
 Gaussian 16:  ES64L-G16RevA.03 25-Dec-2016

 ----------------------------------------------------------------------
 # opt freq 6-31+g(d,p) scrf=(smd,solvent=ethanol) m052x scf=(xqc,direc
 t)
 ----------------------------------------------------------------------

 -------------------
 Title Card Required
 -------------------
 Symbolic Z-matrix:
 Charge =  0 Multiplicity = 2

 SCF Done:  E(UM052X) =  -273.286682849     A.U. after   15 cycles
 SCF Done:  E(UM052X) =  -273.286686525     A.U. after    9 cycles
 SCF Done:  E(UM052X) =  -273.286686707     A.U. after    9 cycles
 Optimization completed.
    -- Stationary point found.

 1\1\GINC-16CORE4\FOpt\UM052X\6-31+G(d,p)\C7H11(2)\RAUL\29-Apr-2022\0\\
 # opt freq 6-31+g(d,p) scrf=(smd,solvent=ethanol) m052x scf=(xqc,direc
 t)\\Title Card Required\\0,2\C,-0.0000033534,-0.2212868492,0.000370275
 5\C,-1.236586991,-0.9148846673,0.0000666106\C,1.2365709416,-0.91490164
 59,-0.0000593137\H,-0.0000010697,0.8613079687,0.0011313724\H,-1.175078
 8349,-2.0010199802,0.0000655123\C,-2.4892765083,-0.364764187,-0.000153
 9817\H,1.1750436807,-2.0010359298,-0.0002972524\C,2.4892729525,-0.3648
 093375,-0.0002289129\H,-3.3320657051,-1.0483945299,0.0002788348\C,-2.8

 Normal termination of Gaussian 16 at Fri Apr 29 19:03:52 2022.

 ----------------------------------------------------------------------
 #N Geom=AllCheck Guess=TCheck SCRF=Check GenChk UM052X/6-31+G(d,p) Fre
 q
 ----------------------------------------------------------------------

 Structure from the checkpoint file:  "bisaliloRW.chk"
 -------------------
 Title Card Required
 -------------------
 Charge =  0 Multiplicity = 2

                         Standard orientation:
 ---------------------------------------------------------------------
 Center     Atomic      Atomic             Coordinates (Angstroms)
 Number     Number       Type             X           Y           Z
 ---------------------------------------------------------------------
      1          6           0       -0.000007   -0.221514    0.000373
      2          6           0       -1.236584   -0.915123    0.000069
      3          6           0        1.236574   -0.915119   -0.000057
      4          1           0       -0.000014    0.861080    0.001134
      5          1           0       -1.175067   -2.001258    0.000068
      6          6           0       -2.489279   -0.365013   -0.000151
      7          1           0        1.175055   -2.001254   -0.000295
      8          6           0        2.489271   -0.365016   -0.000226
      9          1           0       -3.332062   -1.048650    0.000281
     10          6           0       -2.829103    1.091444   -0.000178
     11          1           0        3.332048   -1.048661   -0.000318
     12          6           0        2.829120    1.091434   -0.000048
     13          1           0       -3.426328    1.342596    0.882282
     14          1           0       -1.950411    1.734937   -0.009543
     15          1           0       -3.442379    1.338572   -0.872576
     16          1           0        3.437614    1.339855   -0.875462
     17          1           0        1.950410    1.734958   -0.003724
     18          1           0        3.431182    1.341257    0.879460
 ---------------------------------------------------------------------

 SCF Done:  E(UM052X) =  -273.286686707     A.U. after    1 cycles

 The electronic state is 2-A.
 Alpha  occ. eigenvalues --  -10.58329 -10.58329 -10.58236 -10.57261 -10.57257
 Alpha  occ. eigenvalues --  -10.56040 -10.56040  -0.93216  -0.89548  -0.83667
 Alpha  occ. eigenvalues --   -0.78132  -0.73167  -0.63256  -0.61668  -0.54516
 Alpha  occ. eigenvalues --   -0.54034  -0.48476  -0.48250  -0.48181  -0.48053
 Alpha  occ. eigenvalues --   -0.43759  -0.42522  -0.40919  -0.39854  -0.39839
 Alpha  occ. eigenvalues --   -0.31806  -0.21630
 Alpha virt. eigenvalues --    0.05223   0.05616   0.06648   0.06796   0.08613
 Alpha virt. eigenvalues --    0.08826   0.09205   0.09316   0.10373   0.11592
 Alpha virt. eigenvalues --    0.12141   0.12266   0.13546   0.14109   0.15050

  Beta  occ. eigenvalues --  -10.57845 -10.57845 -10.57653 -10.57507 -10.57490
  Beta  occ. eigenvalues --  -10.56074 -10.56074  -0.92279  -0.88626  -0.82755
  Beta  occ. eigenvalues --   -0.78079  -0.71882  -0.62491  -0.61240  -0.53976
  Beta  occ. eigenvalues --   -0.53845  -0.47749  -0.47742  -0.47399  -0.47207
  Beta  occ. eigenvalues --   -0.43633  -0.42308  -0.40603  -0.39621  -0.37312
  Beta  occ. eigenvalues --   -0.29272
  Beta virt. eigenvalues --   -0.03728   0.05766   0.06863   0.07062   0.07680
  Beta virt. eigenvalues --    0.09010   0.09183   0.09618   0.10029   0.10385
  Beta virt. eigenvalues --    0.11949   0.12353   0.12658   0.13457   0.14507

 Mulliken charges and spin densities:
               1          2
     1  C   -0.004600   0.565328
     2  C   -0.158056  -0.271668
     3  C   -0.158035  -0.271668
     4  H    0.166956  -0.024857
     5  H    0.165016   0.009130
     6  C   -0.074957   0.518659
     7  H    0.165016   0.009130
     8  C   -0.074991   0.518655
     9  H    0.170990  -0.022880
    10  C   -0.719981  -0.035285
    11  H    0.170989  -0.022880
    12  C   -0.719989  -0.035284
    13  H    0.183442   0.015648
    14  H    0.169225   0.000857
    15  H    0.183155   0.015307
    16  H    0.183238   0.015407
    17  H    0.169225   0.000855
    18  H    0.183359   0.015548
 Sum of Mulliken charges =  -0.00000   1.00000

 Dipole moment (field-independent basis, Debye):
    X=              0.0000    Y=              0.8242    Z=              0.0031  Tot=              0.8242
 Quadrupole moment (field-independent basis, Debye-Ang):
   XX=            -36.9186   YY=            -41.0143   ZZ=            -49.0196
   XY=              0.0000   XZ=             -0.0040   YZ=              0.0018

  Exact polarizability: 233.725   0.000 104.615  -0.014   0.025  80.850
 Approx polarizability: 156.274   0.000  83.525  -0.008   0.020  67.953

                      1                      2                      3
                      A                      A                      A
 Frequencies --     61.0813                63.5954               104.2375
 Red. masses --      1.0589                 1.0129                 2.3166
 Frc consts  --      0.0023                 0.0024                 0.0148
 IR Inten    --      0.0390                 2.0036                 0.0002

                      4                      5                      6
                      A                      A                      A
 Frequencies --    119.4252               147.2241               267.9693
 Red. masses --      3.1129                 2.9008                 3.1793
 Frc consts  --      0.0262                 0.0370                 0.1345
 IR Inten    --      0.0987                 2.9862                 0.2213

                      7                      8                      9
                      A                      A                      A
 Frequencies --    346.5781               360.9086               432.7471
 Red. masses --      3.6598                 1.8623                 2.9882
 Frc consts  --      0.2590                 0.1429                 0.3297
 IR Inten    --      0.7819                 1.4396                 0.0001

                     10                     11                     12
                      A                      A                      A
 Frequencies --    585.9878               618.5099               724.7648
 Red. masses --      3.1254                 2.6248                 1.1367
 Frc consts  --      0.6323                 0.5916                 0.3518
 IR Inten    --      0.1918                42.8697                 0.0024

                     13                     14                     15
                      A                      A                      A
 Frequencies --    761.2068               843.5941               920.8095
 Red. masses --      1.1395                 1.7494                 2.1788
 Frc consts  --      0.3890                 0.7335                 1.0885
 IR Inten    --    181.2115                13.7365                89.7074

                     16                     17                     18
                      A                      A                      A
 Frequencies --    951.8879               991.0503              1022.5025
 Red. masses --      2.3111                 1.1997                 1.1979
 Frc consts  --      1.2338                 0.6943                 0.7379
 IR Inten    --      0.5874                 0.0002                31.0648

                     19                     20                     21
                      A                      A                      A
 Frequencies --   1035.4249              1053.8256              1055.1154
 Red. masses --      1.7007                 1.5024                 1.4947
 Frc consts  --      1.0743                 0.9830                 0.9804
 IR Inten    --      0.5172                 0.0088                 3.0024

                     22                     23                     24
                      A                      A                      A
 Frequencies --   1096.4982              1158.6670              1214.2205
 Red. masses --      1.5596                 2.2950                 2.1754
 Frc consts  --      1.1048                 1.8153                 1.8897
 IR Inten    --      1.1662                29.2578                 0.5086

                     25                     26                     27
                      A                      A                      A
 Frequencies --   1236.5893              1296.9642              1320.9740
 Red. masses --      1.3487                 1.4177                 1.3854
 Frc consts  --      1.2151                 1.4051                 1.4243
 IR Inten    --      9.7007                 3.2917                 4.2342

                     28                     29                     30
                      A                      A                      A
 Frequencies --   1416.1272              1424.3900              1459.7887
 Red. masses --      1.2246                 1.2416                 1.4562
 Frc consts  --      1.4470                 1.4842                 1.8283
 IR Inten    --     13.2720                13.7455                 9.7255

                     31                     32                     33
                      A                      A                      A
 Frequencies --   1468.1214              1483.1534              1483.4014
 Red. masses --      1.3248                 1.0440                 1.0441
 Frc consts  --      1.6824                 1.3531                 1.3536
 IR Inten    --    149.5233                 0.1837                34.2150

                     34                     35                     36
                      A                      A                      A
 Frequencies --   1493.5527              1505.7812              1551.9168
 Red. masses --      1.1506                 1.6913                 1.9977
 Frc consts  --      1.5122                 2.2593                 2.8348
 IR Inten    --      6.1637                 1.9799                 9.4733

                     37                     38                     39
                      A                      A                      A
 Frequencies --   1633.5336              3082.1572              3082.2783
 Red. masses --      4.6014                 1.0410                 1.0409
 Frc consts  --      7.2344                 5.8263                 5.8263
 IR Inten    --      9.9053                37.1591                30.0629

                     40                     41                     42
                      A                      A                      A
 Frequencies --   3127.1021              3127.1532              3190.9206
 Red. masses --      1.1003                 1.1003                 1.0974
 Frc consts  --      6.3396                 6.3398                 6.5835
 IR Inten    --     13.0893                31.9784                18.0577

                     43                     44                     45
                      A                      A                      A
 Frequencies --   3192.2928              3197.6367              3200.6470
 Red. masses --      1.0962                 1.0894                 1.0884
 Frc consts  --      6.5818                 6.5627                 6.5692
 IR Inten    --     13.3898                 1.0059                15.0103

                     46                     47                     48
                      A                      A                      A
 Frequencies --   3233.5468              3234.6071              3264.7300
 Red. masses --      1.0904                 1.0908                 1.0872
 Frc consts  --      6.7172                 6.7242                 6.8272
 IR Inten    --     40.5002                40.3683                13.4313

 - Thermochemistry -
 -------------------
 Temperature   298.150 Kelvin.  Pressure   1.00000 Atm.
 Atom     1 has atomic number  6 and mass  12.00000

 Molecular mass:    95.08608 amu.
 Principal axes and moments of inertia in atomic units:
                           1         2         3
     Eigenvalues --   284.948391646.226921909.00683
           X            1.00000  -0.00000   0.00000
           Y            0.00000   1.00000   0.00001
           Z           -0.00000  -0.00001   1.00000
 This molecule is an asymmetric top.
 Rotational symmetry number  1.
 Rotational temperatures (Kelvin)      0.30396     0.05261     0.04537
 Rotational constants (GHZ):           6.33357     1.09629     0.94538
 Zero-point vibrational energy     416570.8 (Joules/Mol)
                                   99.56281 (Kcal/Mol)
 Warning -- explicit consideration of  11 degrees of freedom as
           vibrations may cause significant error
 Vibrational temperatures:     87.88    91.50   149.97   171.83   211.82
          (Kelvin)            385.55   498.65   519.27   622.63   843.11
                              889.90  1042.77  1095.21  1213.74  1324.84
                             1369.55  1425.90  1471.15  1489.75  1516.22
                             1518.08  1577.62  1667.06  1746.99  1779.18
                             1866.04  1900.59  2037.49  2049.38  2100.31
                             2112.30  2133.93  2134.28  2148.89  2166.48
                             2232.86  2350.29  4434.54  4434.71  4499.20
                             4499.28  4591.02  4593.00  4600.69  4605.02
                             4652.35  4653.88  4697.22

 Zero-point correction=                           0.158663 (Hartree/Particle)
 Thermal correction to Energy=                    0.167628
 Thermal correction to Enthalpy=                  0.168572
 Thermal correction to Gibbs Free Energy=         0.123648
 Sum of electronic and zero-point Energies=           -273.128023
 Sum of electronic and thermal Energies=              -273.119059
 Sum of electronic and thermal Enthalpies=            -273.118115
 Sum of electronic and thermal Free Energies=         -273.163039

                     E (Thermal)             CV                S
                      KCal/Mol        Cal/Mol-Kelvin    Cal/Mol-Kelvin
 Total                  105.188             30.689             94.551
 Electronic               0.000              0.000              1.377
 Translational            0.889              2.981             39.568
 Rotational               0.889              2.981             28.284
 Vibrational            103.410             24.727             25.322
 Vibration     1          0.597              1.973              4.422
 Vibration     2          0.597              1.972              4.342
 Vibration     3          0.605              1.946              3.373
 Vibration     4          0.609              1.933              3.110
 Vibration     5          0.617              1.906              2.708
 Vibration     6          0.673              1.732              1.609
 Vibration     7          0.725              1.582              1.182
 Vibration     8          0.735              1.553              1.118
 Vibration     9          0.794              1.399              0.850
 Vibration    10          0.943              1.062              0.474
 Vibration    11          0.978              0.993              0.419

                           ! Non-Optimized Parameters !

 1\1\GINC-16CORE4\Freq\UM052X\6-31+G(d,p)\C7H11(2)\RAUL\29-Apr-2022\0\\
 #N Geom=AllCheck Guess=TCheck SCRF=Check GenChk UM052X/6-31+G(d,p) Fre
 q\\Title Card Required\\0,2\C,-0.0000033534,-0.2212868492,0.0003702755
 \C,-1.236586991,-0.9148846673,0.0000666106\C,1.2365709416,-0.914901645
 9,-0.0000593137\H,-0.0000010697,0.8613079687,0.0011313724\H,-1.1750788
 349,-2.0010199802,0.0000655123\C,-2.4892765083,-0.364764187,-0.0001539
 817\H,1.1750436807,-2.0010359298,-0.0002972524\C,2.4892729525,-0.36480
 93375,-0.0002289129\H,-3.3320657051,-1.0483945299,0.0002788348\C,-2.82

 Normal termination of Gaussian 16 at Fri Apr 29 19:07:47 2022.
