 Gaussian 16, Revision A.03,
 Gaussian 16:  ES64L-G16RevA.03 25-Dec-2016

 ----------------------------------------------------------------------
 # opt freq 6-31+g(d,p) scrf=(smd,solvent=ethanol) iop(1/8=4) m052x scf
 =xqc
 ----------------------------------------------------------------------

 -------------------
 Title Card Required
 -------------------
 Symbolic Z-matrix:
 Charge =  0 Multiplicity = 1

 SCF Done:  E(RM052X) =  -1418.43875283     A.U. after   17 cycles
 SCF Done:  E(RM052X) =  -1418.43626407     A.U. after   15 cycles
 SCF Done:  E(RM052X) =  -1418.43864034     A.U. after   16 cycles
 SCF Done:  E(RM052X) =  -1418.43887655     A.U. after   10 cycles
 SCF Done:  E(RM052X) =  -1418.43883547     A.U. after   14 cycles
 SCF Done:  E(RM052X) =  -1418.43899602     A.U. after   14 cycles
 SCF Done:  E(RM052X) =  -1418.43890080     A.U. after   15 cycles
 SCF Done:  E(RM052X) =  -1418.43904261     A.U. after   14 cycles
 SCF Done:  E(RM052X) =  -1418.43906830     A.U. after   13 cycles
 SCF Done:  E(RM052X) =  -1418.43904561     A.U. after   13 cycles
 SCF Done:  E(RM052X) =  -1418.43907335     A.U. after   13 cycles
 SCF Done:  E(RM052X) =  -1418.43907390     A.U. after   10 cycles
 SCF Done:  E(RM052X) =  -1418.43907744     A.U. after   13 cycles
 SCF Done:  E(RM052X) =  -1418.43907349     A.U. after   13 cycles
 SCF Done:  E(RM052X) =  -1418.43907330     A.U. after   10 cycles
 SCF Done:  E(RM052X) =  -1418.43907740     A.U. after   13 cycles
 SCF Done:  E(RM052X) =  -1418.43907307     A.U. after   13 cycles
 SCF Done:  E(RM052X) =  -1418.43907732     A.U. after   13 cycles
 SCF Done:  E(RM052X) =  -1418.43907322     A.U. after   13 cycles
 Optimization completed on the basis of negligible forces.
    -- Stationary point found.
 Normal termination of Gaussian 16 at Fri Apr 29 23:51:19 2022.

 ----------------------------------------------------------------------
 #N Geom=AllCheck Guess=TCheck SCRF=Check Test GenChk RM052X/6-31+G(d,p
 ) Freq
 ----------------------------------------------------------------------

 Structure from the checkpoint file:  "ProdDPPH-H-M05etanol.chk"
 -------------------
 Title Card Required
 -------------------
 Charge =  0 Multiplicity = 1

                         Standard orientation:
 ---------------------------------------------------------------------
 Center     Atomic      Atomic             Coordinates (Angstroms)
 Number     Number       Type             X           Y           Z
 ---------------------------------------------------------------------
      1          7           0       -1.480297    0.000495    0.066216
      2          7           0       -0.517878   -0.807944    0.648265
      3          6           0       -2.731467   -0.650322   -0.127537
      4          6           0       -3.935471    0.058750   -0.056339
      5          6           0       -2.753932   -2.023721   -0.401667
      6          6           0       -5.141589   -0.601065   -0.281138
      7          1           0       -3.943325    1.114444    0.175974
      8          6           0       -3.968139   -2.668893   -0.616482
      9          1           0       -1.829646   -2.583409   -0.447706
     10          6           0       -5.169845   -1.964551   -0.564359
     11          1           0       -6.065060   -0.037312   -0.222358
     12          1           0       -3.967796   -3.731507   -0.828447
     13          1           0       -6.111822   -2.471138   -0.734558
     14          6           0        0.757429   -0.700075    0.232860
     15          6           0        1.071337   -0.225147   -1.071463
     16          6           0        1.896853   -0.961291    1.048848
     17          6           0        2.338709    0.074822   -1.497212
     18          6           0        3.192630   -0.686908    0.634237
     19          6           0        3.398448   -0.152786   -0.619738
     20          1           0        2.507791    0.437358   -2.502773
     21          1           0        4.020480   -0.881219    1.300809
     22          6           0       -1.428699    1.376703    0.484865
     23          6           0       -1.778682    2.360113   -0.441399
     24          6           0       -1.002964    1.728776    1.765428
     25          6           0       -1.724902    3.701460   -0.073884
     26          1           0       -2.093278    2.069471   -1.436573
     27          6           0       -0.934009    3.076270    2.116930
     28          1           0       -0.722388    0.967730    2.484053
     29          6           0       -1.298648    4.063939    1.204160
     30          1           0       -2.001660    4.462920   -0.792919
     31          1           0       -0.599736    3.349668    3.110471
     32          1           0       -1.245327    5.109075    1.483705
     33          7           0        4.747132    0.152034   -1.048054
     34          8           0        5.665410   -0.102668   -0.286972
     35          8           0        4.896083    0.652104   -2.150711
     36          7           0        0.034229   -0.167166   -2.107989
     37          8           0       -0.577080   -1.193203   -2.335154
     38          8           0       -0.085014    0.867785   -2.733660
     39          8           0        2.726449   -1.483078    3.122490
     40          8           0        0.657397   -1.908679    2.731838
     41          7           0        1.754463   -1.481724    2.389140
     42          1           0       -0.700083   -1.170465    1.577961
 ---------------------------------------------------------------------

 SCF Done:  E(RM052X) =  -1418.43907322     A.U. after    1 cycles

 The electronic state is 1-A.
 Alpha  occ. eigenvalues --  -19.75899 -19.75806 -19.75787 -19.75532 -19.75152
 Alpha  occ. eigenvalues --  -19.75120 -15.08892 -15.08766 -15.08305 -14.89801
 Alpha  occ. eigenvalues --  -14.88461 -10.71308 -10.68088 -10.68047 -10.66879
 Alpha  occ. eigenvalues --  -10.65363 -10.65221 -10.63823 -10.63519 -10.59298
 Alpha  occ. eigenvalues --  -10.59086 -10.59038 -10.58964 -10.58717 -10.58695
 Alpha  occ. eigenvalues --  -10.58685 -10.58589 -10.58574 -10.58023  -1.41106
 Alpha  occ. eigenvalues --   -1.41000  -1.40475  -1.21936  -1.21679  -1.21124
 Alpha  occ. eigenvalues --   -1.19184  -1.07131  -1.02149  -0.98539  -0.98261
 Alpha  occ. eigenvalues --   -0.97088  -0.94594  -0.87627  -0.86654  -0.86207
 Alpha  occ. eigenvalues --   -0.85872  -0.84472  -0.84119  -0.81069  -0.74247
 Alpha  occ. eigenvalues --   -0.73316  -0.72252  -0.71223  -0.70205  -0.69628
 Alpha  occ. eigenvalues --   -0.68835  -0.67605  -0.66700  -0.66230  -0.65856
 Alpha  occ. eigenvalues --   -0.65368  -0.65028  -0.64359  -0.63947  -0.63288
 Alpha  occ. eigenvalues --   -0.62749  -0.62499  -0.58719  -0.57271  -0.56659
 Alpha  occ. eigenvalues --   -0.55240  -0.54038  -0.53036  -0.52561  -0.51646
 Alpha  occ. eigenvalues --   -0.50871  -0.50584  -0.50153  -0.49821  -0.47366
 Alpha  occ. eigenvalues --   -0.45339  -0.44329  -0.43889  -0.43670  -0.42788
 Alpha  occ. eigenvalues --   -0.42557  -0.42488  -0.42414  -0.42026  -0.41574
 Alpha  occ. eigenvalues --   -0.41320  -0.41235  -0.41118  -0.40970  -0.40710
 Alpha  occ. eigenvalues --   -0.38996  -0.36933  -0.32390  -0.32092  -0.32026
 Alpha  occ. eigenvalues --   -0.31396  -0.26777
 Alpha virt. eigenvalues --   -0.08152  -0.07618  -0.05748   0.00292   0.01028
 Alpha virt. eigenvalues --    0.01547   0.02722   0.03035   0.03666   0.04065
 Alpha virt. eigenvalues --    0.05464   0.06097   0.06246   0.07202   0.07388

 Mulliken charges:
               1
     1  N    0.272921
     2  N   -0.456659
     3  C   -0.401601
     4  C    0.494497
     5  C    0.279460
     6  C   -0.567577
     7  H    0.187790
     8  C   -0.515200
     9  H    0.192159
    10  C   -0.039133
    11  H    0.190230
    12  H    0.190098
    13  H    0.185417
    14  C   -0.115259
    15  C    0.963215
    16  C    0.019226
    17  C   -0.648056
    18  C    0.461974
    19  C   -0.467858
    20  H    0.258185
    21  H    0.258704
    22  C   -0.577070
    23  C   -0.115025
    24  C    0.459642
    25  C   -0.375633
    26  H    0.196052
    27  C   -0.381961
    28  H    0.195373
    29  C   -0.122477
    30  H    0.191960
    31  H    0.193012
    32  H    0.189963
    33  N   -0.152636
    34  O   -0.110709
    35  O   -0.098757
    36  N   -0.282619
    37  O    0.010177
    38  O   -0.013169
    39  O   -0.072742
    40  O   -0.097343
    41  N   -0.207301
    42  H    0.428727
 Sum of Mulliken charges =  -0.00000

 Dipole moment (field-independent basis, Debye):
    X=             -4.9256    Y=              1.5760    Z=              2.2575  Tot=              5.6428
 Quadrupole moment (field-independent basis, Debye-Ang):
   XX=           -190.9630   YY=           -153.3443   ZZ=           -185.4394
   XY=             -5.1661   XZ=             -0.1105   YZ=             11.1598

  Exact polarizability: 496.314  26.623 368.818  22.948 -28.390 368.987
 Approx polarizability: 402.357  23.238 330.559  22.012 -27.924 327.354

                      1                      2                      3
                      A                      A                      A
 Frequencies --     17.4189                24.3934                38.6572
 Red. masses --      8.8449                 6.2815                 6.7130
 Frc consts  --      0.0016                 0.0022                 0.0059
 IR Inten    --      0.3642                 0.5930                 2.1110

                      4                      5                      6
                      A                      A                      A
 Frequencies --     39.7487                51.2821                63.4542
 Red. masses --      5.8986                14.8120                 6.3260
 Frc consts  --      0.0055                 0.0230                 0.0150
 IR Inten    --      0.4615                 0.0084                 0.2289

                      7                      8                      9
                      A                      A                      A
 Frequencies --     72.6513                80.5366                98.6477
 Red. masses --      8.4858                 4.8196                 6.1846
 Frc consts  --      0.0264                 0.0184                 0.0355
 IR Inten    --      0.5969                 0.2224                 3.3044

                     10                     11                     12
                      A                      A                      A
 Frequencies --    106.9808               112.9660               149.8532
 Red. masses --     10.0177                 9.7247                10.7073
 Frc consts  --      0.0676                 0.0731                 0.1417
 IR Inten    --      2.3979                12.7639                 8.3033

                     13                     14                     15
                      A                      A                      A
 Frequencies --    179.8730               185.7822               194.9096
 Red. masses --      7.8907                 6.5651                 6.7375
 Frc consts  --      0.1504                 0.1335                 0.1508
 IR Inten    --      0.4640                 2.0476                10.8232

                     16                     17                     18
                      A                      A                      A
 Frequencies --    201.4768               243.5738               264.6327
 Red. masses --      9.5966                 4.8328                 5.1389
 Frc consts  --      0.2295                 0.1689                 0.2120
 IR Inten    --      7.8192                11.7261                 3.1527

                     19                     20                     21
                      A                      A                      A
 Frequencies --    287.1097               320.4431               333.8618
 Red. masses --      8.1942                 5.3127                11.0443
 Frc consts  --      0.3980                 0.3214                 0.7253
 IR Inten    --      1.3432                 1.9774                 0.4982

                     22                     23                     24
                      A                      A                      A
 Frequencies --    347.6525               377.4136               389.7191
 Red. masses --      9.2185                 9.1779                 9.4311
 Frc consts  --      0.6565                 0.7702                 0.8439
 IR Inten    --      2.2395                 0.0531                 0.5854

                     25                     26                     27
                      A                      A                      A
 Frequencies --    418.2208               423.1766               426.4989
 Red. masses --      6.7062                 2.9685                 4.0328
 Frc consts  --      0.6911                 0.3132                 0.4322
 IR Inten    --      9.9972                 1.9906                11.1488

                     28                     29                     30
                      A                      A                      A
 Frequencies --    430.6681               466.0913               496.9542
 Red. masses --      4.2979                 5.0742                 3.7917
 Frc consts  --      0.4697                 0.6495                 0.5517
 IR Inten    --      1.2595                64.0635                 9.5999

                     31                     32                     33
                      A                      A                      A
 Frequencies --    531.0552               544.2058               552.7856
 Red. masses --      3.5335                 3.7222                 5.1535
 Frc consts  --      0.5871                 0.6495                 0.9278
 IR Inten    --     16.0707                46.2440                49.3272

                     34                     35                     36
                      A                      A                      A
 Frequencies --    561.9410               584.8634               624.8175
 Red. masses --      4.4901                 2.5416                 5.1544
 Frc consts  --      0.8354                 0.5122                 1.1856
 IR Inten    --      7.5576               188.0010                 8.9049

                     37                     38                     39
                      A                      A                      A
 Frequencies --    625.9145               628.7408               642.3388
 Red. masses --      6.3518                 5.2914                 2.7613
 Frc consts  --      1.4661                 1.2324                 0.6713
 IR Inten    --      5.7905                 6.2541               284.3010

                     40                     41                     42
                      A                      A                      A
 Frequencies --    691.7608               711.1434               715.9314
 Red. masses --      6.3541                 6.0896                 2.3731
 Frc consts  --      1.7915                 1.8145                 0.7166
 IR Inten    --     13.4151                59.7569                67.5842

                     43                     44                     45
                      A                      A                      A
 Frequencies --    721.4706               749.6650               755.2790
 Red. masses --      1.9738                 7.1723                 9.1484
 Frc consts  --      0.6053                 2.3749                 3.0747
 IR Inten    --    126.6176                19.0686               152.0287

                     46                     47                     48
                      A                      A                      A
 Frequencies --    765.2644               779.0486               781.4387
 Red. masses --      4.5967                 4.7632                 1.7887
 Frc consts  --      1.5860                 1.7032                 0.6436
 IR Inten    --     44.4706                37.7549               100.1160

                     49                     50                     51
                      A                      A                      A
 Frequencies --    793.7405               812.0672               821.0149
 Red. masses --      3.1525                 8.4961                 4.2989
 Frc consts  --      1.1702                 3.3011                 1.7073
 IR Inten    --     43.2731                19.1559                70.4966

                     52                     53                     54
                      A                      A                      A
 Frequencies --    860.0877               868.2398               871.1867
 Red. masses --     12.5145                 1.2687                 4.6296
 Frc consts  --      5.4544                 0.5635                 2.0702
 IR Inten    --      4.1716                 1.2704                16.0971

                     55                     56                     57
                      A                      A                      A
 Frequencies --    875.9512               934.9422               943.2849
 Red. masses --      1.3013                 3.8659                 1.4902
 Frc consts  --      0.5883                 1.9910                 0.7813
 IR Inten    --      3.6634                 5.2418                10.1675

                     58                     59                     60
                      A                      A                      A
 Frequencies --    963.0285               970.6884               977.9898
 Red. masses --      1.5301                 1.5953                 1.4342
 Frc consts  --      0.8361                 0.8856                 0.8082
 IR Inten    --      6.7998                31.4993                 7.3869

                     61                     62                     63
                      A                      A                      A
 Frequencies --    994.7071               995.7791              1015.2312
 Red. masses --      8.6332                10.5774                 5.3293
 Frc consts  --      5.0328                 6.1795                 3.2363
 IR Inten    --     59.5298                69.6387                 2.3570

                     64                     65                     66
                      A                      A                      A
 Frequencies --   1017.1120              1020.9599              1021.1694
 Red. masses --      1.3504                 1.4185                 4.8267
 Frc consts  --      0.8231                 0.8712                 2.9655
 IR Inten    --      0.4316                 0.4033                 2.9166

                     67                     68                     69
                      A                      A                      A
 Frequencies --   1032.3771              1038.2570              1065.9168
 Red. masses --      1.2838                 1.2994                 2.2384
 Frc consts  --      0.8062                 0.8253                 1.4984
 IR Inten    --      0.9146                 0.5143                12.8343

                     70                     71                     72
                      A                      A                      A
 Frequencies --   1071.8777              1119.9569              1125.1307
 Red. masses --      2.0853                 1.4944                 1.6181
 Frc consts  --      1.4116                 1.1044                 1.2069
 IR Inten    --     30.1323                24.4429                 9.7836

                     73                     74                     75
                      A                      A                      A
 Frequencies --   1134.5471              1156.7402              1175.3886
 Red. masses --      1.6493                 2.6898                 1.0984
 Frc consts  --      1.2508                 2.1205                 0.8941
 IR Inten    --    197.1933                92.7572                 0.7313

                     76                     77                     78
                      A                      A                      A
 Frequencies --   1177.0363              1202.0315              1209.5350
 Red. masses --      1.0899                 1.1235                 1.1272
 Frc consts  --      0.8896                 0.9564                 0.9716
 IR Inten    --      2.0592                 7.4942                 1.0450

                     79                     80                     81
                      A                      A                      A
 Frequencies --   1230.1635              1237.4002              1287.5306
 Red. masses --      1.7351                 5.9090                 3.2791
 Frc consts  --      1.5470                 5.3307                 3.2028
 IR Inten    --    209.1101               127.8149                82.8477

                     82                     83                     84
                      A                      A                      A
 Frequencies --   1309.2725              1346.8874              1353.0827
 Red. masses --      3.7319                 2.5321                 2.9164
 Frc consts  --      3.7692                 2.7064                 3.1460
 IR Inten    --    226.6352                15.1644                96.3443

                     85                     86                     87
                      A                      A                      A
 Frequencies --   1362.8459              1368.4895              1374.0086
 Red. masses --      4.5452                 1.8169                 1.5547
 Frc consts  --      4.9739                 2.0047                 1.7293
 IR Inten    --     27.0863                14.1567                 9.4943

                     88                     89                     90
                      A                      A                      A
 Frequencies --   1375.8496              1435.2920              1443.0371
 Red. masses --      6.5042                 4.6390                12.8260
 Frc consts  --      7.2541                 5.6306                15.7361
 IR Inten    --    419.3019               351.1483              1716.2086

                     91                     92                     93
                      A                      A                      A
 Frequencies --   1489.5562              1499.6307              1505.8624
 Red. masses --      5.9815                 6.3958                 2.6495
 Frc consts  --      7.8194                 8.4745                 3.5398
 IR Inten    --     59.2377                50.5844                86.1375

                     94                     95                     96
                      A                      A                      A
 Frequencies --   1506.4489              1513.4077              1548.8243
 Red. masses --      3.1017                 2.6079                 2.3771
 Frc consts  --      4.1473                 3.5192                 3.3597
 IR Inten    --    364.1187                84.0783               283.6917

                     97                     98                     99
                      A                      A                      A
 Frequencies --   1551.2034              1588.9010              1632.2387
 Red. masses --      2.3793                 5.2339                 9.2933
 Frc consts  --      3.3731                 7.7852                14.5877
 IR Inten    --     48.7399               314.4969               216.5627

                    100                    101                    102
                      A                      A                      A
 Frequencies --   1649.6886              1670.0364              1675.4956
 Red. masses --      6.7337                12.7145                 6.3580
 Frc consts  --     10.7972                20.8931                10.5162
 IR Inten    --    367.3937               576.8500                21.9604

                    103                    104                    105
                      A                      A                      A
 Frequencies --   1681.5380              1683.9408              1684.0825
 Red. masses --      6.9505                 6.2761                 8.7719
 Frc consts  --     11.5792                10.4857                14.6579
 IR Inten    --    148.4493               154.8023               820.3950

                    106                    107                    108
                      A                      A                      A
 Frequencies --   1693.0184              1711.4296              3252.3194
 Red. masses --      6.2604                 8.6159                 1.0876
 Frc consts  --     10.5724                14.8685                 6.7781
 IR Inten    --    152.7800               857.8806                 1.8047

                    109                    110                    111
                      A                      A                      A
 Frequencies --   3253.4389              3259.1800              3259.3719
 Red. masses --      1.0875                 1.0903                 1.0911
 Frc consts  --      6.7821                 6.8236                 6.8295
 IR Inten    --      1.1132                 4.8408                 9.3922

                    112                    113                    114
                      A                      A                      A
 Frequencies --   3264.9277              3270.4205              3271.4672
 Red. masses --      1.0930                 1.0961                 1.0967
 Frc consts  --      6.8646                 6.9074                 6.9152
 IR Inten    --      9.5034                 9.2215                16.0269

                    115                    116                    117
                      A                      A                      A
 Frequencies --   3276.7101              3286.8023              3287.1744
 Red. masses --      1.0994                 1.0931                 1.0942
 Frc consts  --      6.9548                 6.9575                 6.9661
 IR Inten    --      6.1068                 1.9997                 0.4794

                    118                    119                    120
                      A                      A                      A
 Frequencies --   3297.9385              3315.9225              3575.0781
 Red. masses --      1.0949                 1.0935                 1.0782
 Frc consts  --      7.0161                 7.0837                 8.1192
 IR Inten    --     43.1368                61.4652               311.9900

 - Thermochemistry -
 -------------------
 Temperature   298.150 Kelvin.  Pressure   1.00000 Atm.
 Atom     1 has atomic number  7 and mass  14.00307

 Molecular mass:   395.08658 amu.
 Principal axes and moments of inertia in atomic units:
                           1         2         3
     Eigenvalues --  7241.37143********************
           X            0.99999   0.00244   0.00281
           Y           -0.00274   0.99386   0.11059
           Z           -0.00252  -0.11060   0.99386
 This molecule is an asymmetric top.
 Rotational symmetry number  1.
 Warning -- assumption of classical behavior for rotation
           may cause significant error
 Rotational temperatures (Kelvin)      0.01196     0.00573     0.00554
 Rotational constants (GHZ):           0.24923     0.11949     0.11552
 Zero-point vibrational energy     809621.8 (Joules/Mol)
                                  193.50426 (Kcal/Mol)
 Warning -- explicit consideration of  35 degrees of freedom as
           vibrations may cause significant error
 Vibrational temperatures:     25.06    35.10    55.62    57.19    73.78
          (Kelvin)             91.30   104.53   115.87   141.93   153.92
                              162.53   215.61   258.80   267.30   280.43
                              289.88   350.45   380.75   413.09   461.05
                              480.35   500.19   543.01   560.72   601.73
                              608.86   613.64   619.64   670.60   715.01
                              764.07   782.99   795.34   808.51   841.49
                              898.97   900.55   904.62   924.18   995.29
                             1023.18  1030.07  1038.04  1078.60  1086.68
                             1101.04  1120.88  1124.32  1142.02  1168.38
                             1181.26  1237.47  1249.20  1253.44  1260.30
                             1345.17  1357.18  1385.58  1396.60  1407.11
                             1431.16  1432.70  1460.69  1463.40  1468.93
                             1469.24  1485.36  1493.82  1533.62  1542.19
                             1611.37  1618.81  1632.36  1664.29  1691.12
                             1693.49  1729.46  1740.25  1769.93  1780.34
                             1852.47  1883.75  1937.87  1946.78  1960.83
                             1968.95  1976.89  1979.54  2065.07  2076.21
                             2143.14  2157.63  2166.60  2167.44  2177.46
                             2228.41  2231.84  2286.07  2348.43  2373.53
                             2402.81  2410.66  2419.36  2422.82  2423.02
                             2435.88  2462.37  4679.36  4680.97  4689.23
                             4689.51  4697.50  4705.41  4706.91  4714.46
                             4728.98  4729.51  4745.00  4770.87  5143.74

 Zero-point correction=                           0.308369 (Hartree/Particle)
 Thermal correction to Energy=                    0.331577
 Thermal correction to Enthalpy=                  0.332521
 Thermal correction to Gibbs Free Energy=         0.252846
 Sum of electronic and zero-point Energies=          -1418.130705
 Sum of electronic and thermal Energies=             -1418.107496
 Sum of electronic and thermal Enthalpies=           -1418.106552
 Sum of electronic and thermal Free Energies=        -1418.186227

                     E (Thermal)             CV                S
                      KCal/Mol        Cal/Mol-Kelvin    Cal/Mol-Kelvin
 Total                  208.068             88.549            167.690
 Electronic               0.000              0.000              0.000
 Translational            0.889              2.981             43.813
 Rotational               0.889              2.981             35.789
 Vibrational            206.290             82.588             88.087
 Vibration     1          0.593              1.986              6.909
 Vibration     2          0.593              1.985              6.240
 Vibration     3          0.594              1.981              5.327
 Vibration     4          0.594              1.981              5.272
 Vibration     5          0.596              1.977              4.767
 Vibration     6          0.597              1.972              4.347
 Vibration     7          0.599              1.967              4.080
 Vibration     8          0.600              1.962              3.878
 Vibration     9          0.604              1.950              3.481
 Vibration    10          0.606              1.944              3.323
 Vibration    11          0.607              1.939              3.217
 Vibration    12          0.618              1.903              2.674
 Vibration    13          0.629              1.867              2.330
 Vibration    14          0.632              1.859              2.270
 Vibration    15          0.636              1.847              2.181
 Vibration    16          0.638              1.838              2.120
 Vibration    17          0.659              1.773              1.777
 Vibration    18          0.671              1.738              1.631
 Vibration    19          0.684              1.698              1.491
 Vibration    20          0.706              1.634              1.308
 Vibration    21          0.715              1.608              1.241
 Vibration    22          0.725              1.580              1.177
 Vibration    23          0.748              1.518              1.050
 Vibration    24          0.758              1.492              1.001
 Vibration    25          0.781              1.431              0.898
 Vibration    26          0.785              1.420              0.881
 Vibration    27          0.788              1.413              0.870
 Vibration    28          0.792              1.403              0.856
 Vibration    29          0.823              1.325              0.749
 Vibration    30          0.852              1.257              0.666
 Vibration    31          0.886              1.181              0.585
 Vibration    32          0.899              1.152              0.556
 Vibration    33          0.908              1.134              0.538
 Vibration    34          0.918              1.114              0.520
 Vibration    35          0.942              1.064              0.476

 Optimization completed.
    -- Stationary point found.
 Normal termination of Gaussian 16 at Sat Apr 30 01:03:20 2022.
