 Gaussian 16, Revision A.03,
 Gaussian 16:  ES64L-G16RevA.03 25-Dec-2016

 ----------------------------------------------------------------------
 # opt freq 6-31+g(d,p) m052x scf=(xqc,direct) scrf=(smd,solvent=ethano
 l) geom=check guess=check iop(1/8=4)
 ----------------------------------------------------------------------

 -------------------
 Title Card Required
 -------------------
 Structure from the checkpoint file:  "bisaliloETBG.chk"
 Charge =  0 Multiplicity = 1

 SCF Done:  E(RM052X) =  -273.909549639     A.U. after   10 cycles
 SCF Done:  E(RM052X) =  -273.909597095     A.U. after   10 cycles
 SCF Done:  E(RM052X) =  -273.909616299     A.U. after   10 cycles
 SCF Done:  E(RM052X) =  -273.909627982     A.U. after   10 cycles
 SCF Done:  E(RM052X) =  -273.909635981     A.U. after   10 cycles
 SCF Done:  E(RM052X) =  -273.909639060     A.U. after    9 cycles
 SCF Done:  E(RM052X) =  -273.909639883     A.U. after    9 cycles
 Optimization completed.
    -- Stationary point found.
 Normal termination of Gaussian 16 at Fri Apr 29 13:27:45 2022.

 ----------------------------------------------------------------------
 #N Geom=AllCheck Guess=TCheck SCRF=Check Test GenChk RM052X/6-31+G(d,p
 ) Freq
 ----------------------------------------------------------------------

 Structure from the checkpoint file:  "bisaliloETBG.chk"
 -------------------
 Title Card Required
 -------------------
 Charge =  0 Multiplicity = 1

                         Standard orientation:
 ---------------------------------------------------------------------
 Center     Atomic      Atomic             Coordinates (Angstroms)
 Number     Number       Type             X           Y           Z
 ---------------------------------------------------------------------
      1          6           0        0.000009    0.000087    0.614480
      2          6           0       -0.959540    0.782314   -0.248702
      3          6           0        0.959514   -0.782323   -0.248586
      4          1           0        0.542969    0.691584    1.261625
      5          1           0       -0.505314    1.592328   -0.815502
      6          6           0       -2.271488    0.569340   -0.405124
      7          1           0        0.505247   -1.592423   -0.815230
      8          6           0        2.271466   -0.569424   -0.405072
      9          1           0       -2.805514    1.231941   -1.082524
     10          6           0       -3.111435   -0.489735    0.248108
     11          1           0        2.805454   -1.232165   -1.082365
     12          6           0        3.111465    0.489734    0.247958
     13          1           0       -3.609931   -1.096793   -0.513091
     14          1           0       -2.532879   -1.154927    0.888030
     15          1           0       -3.899993   -0.031337    0.852275
     16          1           0        3.609982    1.096631   -0.513356
     17          1           0        2.532945    1.155069    0.887763
     18          1           0        3.900008    0.031411    0.852202
     19          1           0       -0.542919   -0.691275    1.261797
 ---------------------------------------------------------------------

 SCF Done:  E(RM052X) =  -273.909639883     A.U. after    1 cycles

 The electronic state is 1-A.
 Alpha  occ. eigenvalues --  -10.57362 -10.57362 -10.57154 -10.57152 -10.56831
 Alpha  occ. eigenvalues --  -10.55852 -10.55852  -0.92351  -0.88728  -0.82861
 Alpha  occ. eigenvalues --   -0.77705  -0.73761  -0.62056  -0.59581  -0.56911
 Alpha  occ. eigenvalues --   -0.53041  -0.49050  -0.48517  -0.47305  -0.47215
 Alpha  occ. eigenvalues --   -0.44271  -0.43161  -0.41374  -0.39989  -0.39248
 Alpha  occ. eigenvalues --   -0.30983  -0.29203
 Alpha virt. eigenvalues --    0.04536   0.05200   0.06825   0.07131   0.07753
 Alpha virt. eigenvalues --    0.08532   0.09278   0.09717   0.09918   0.11166
 Alpha virt. eigenvalues --    0.11466   0.12271   0.12740   0.12864   0.14090

 Mulliken charges:
               1
     1  C   -0.079152
     2  C   -0.185569
     3  C   -0.185571
     4  H    0.168704
     5  H    0.162173
     6  C   -0.126748
     7  H    0.162173
     8  C   -0.126754
     9  H    0.163934
    10  C   -0.664479
    11  H    0.163934
    12  C   -0.664480
    13  H    0.178281
    14  H    0.164820
    15  H    0.178464
    16  H    0.178281
    17  H    0.164820
    18  H    0.178464
    19  H    0.168706
 Sum of Mulliken charges =  -0.00000

 Dipole moment (field-independent basis, Debye):
    X=              0.0000    Y=              0.0000    Z=              0.3725  Tot=              0.3725
 Quadrupole moment (field-independent basis, Debye-Ang):
   XX=            -39.5922   YY=            -45.3658   ZZ=            -46.1331
   XY=              1.8777   XZ=             -0.0002   YZ=             -0.0001

  Exact polarizability: 160.636   8.505  95.884  -0.001  -0.000  92.096
 Approx polarizability: 123.431   6.649  78.228  -0.001  -0.000  75.980

                      1                      2                      3
                      A                      A                      A
 Frequencies --     40.3636                45.1722               115.0117
 Red. masses --      2.7377                 2.9906                 1.0503
 Frc consts  --      0.0026                 0.0036                 0.0082
 IR Inten    --      0.4207                 0.5599                 1.0125

                      4                      5                      6
                      A                      A                      A
 Frequencies --    123.7659               203.3171               214.4927
 Red. masses --      1.0723                 3.0214                 2.6780
 Frc consts  --      0.0097                 0.0736                 0.0726
 IR Inten    --      0.6807                 0.0004                 0.0777

                      7                      8                      9
                      A                      A                      A
 Frequencies --    344.7067               402.5317               519.3396
 Red. masses --      2.3764                 2.4152                 2.2947
 Frc consts  --      0.1664                 0.2306                 0.3647
 IR Inten    --      0.0112                 0.1499                 8.0606

                     10                     11                     12
                      A                      A                      A
 Frequencies --    557.0599               557.1043               722.5704
 Red. masses --      2.6443                 1.9034                 1.1526
 Frc consts  --      0.4835                 0.3481                 0.3545
 IR Inten    --      0.0970                28.6708               104.4125

                     13                     14                     15
                      A                      A                      A
 Frequencies --    743.1167               887.1549               927.1590
 Red. masses --      1.4210                 1.9481                 2.5156
 Frc consts  --      0.4623                 0.9034                 1.2741
 IR Inten    --     89.6315                 3.1893                17.0511

                     16                     17                     18
                      A                      A                      A
 Frequencies --    968.7914               995.8316              1026.2117
 Red. masses --      2.0570                 1.7752                 1.4029
 Frc consts  --      1.1375                 1.0372                 0.8704
 IR Inten    --     46.0313                 2.0406                13.2648

                     19                     20                     21
                      A                      A                      A
 Frequencies --   1029.3860              1031.4009              1079.5208
 Red. masses --      1.2166                 1.3893                 1.5539
 Frc consts  --      0.7595                 0.8708                 1.0669
 IR Inten    --      2.0676                14.0665                 2.2170

                     22                     23                     24
                      A                      A                      A
 Frequencies --   1079.7890              1106.0276              1153.4068
 Red. masses --      1.5522                 1.6436                 2.1875
 Frc consts  --      1.0663                 1.1847                 1.7146
 IR Inten    --      2.6389                 5.2993                 0.6497

                     25                     26                     27
                      A                      A                      A
 Frequencies --   1227.4600              1282.0447              1293.2805
 Red. masses --      1.2679                 1.1539                 1.1388
 Frc consts  --      1.1255                 1.1174                 1.1222
 IR Inten    --      0.0236                 0.8795                 0.2432

                     28                     29                     30
                      A                      A                      A
 Frequencies --   1311.9905              1408.7715              1411.2040
 Red. masses --      1.3543                 1.2123                 1.2560
 Frc consts  --      1.3734                 1.4176                 1.4737
 IR Inten    --      1.3217                 1.3755                 9.2011

                     31                     32                     33
                      A                      A                      A
 Frequencies --   1443.1580              1443.6697              1482.8521
 Red. masses --      1.5028                 1.4506                 1.0964
 Frc consts  --      1.8441                 1.7813                 1.4204
 IR Inten    --     27.3855                 1.5189                 8.4868

                     34                     35                     36
                      A                      A                      A
 Frequencies --   1487.9306              1488.5121              1494.2886
 Red. masses --      1.0436                 1.0507                 1.0722
 Frc consts  --      1.3613                 1.3716                 1.4106
 IR Inten    --     11.6529                19.2293                23.0400

                     37                     38                     39
                      A                      A                      A
 Frequencies --   1504.3584              1756.5751              1768.2013
 Red. masses --      1.0772                 6.9586                 6.4169
 Frc consts  --      1.4363                12.6504                11.8205
 IR Inten    --     13.5959                11.1837                 6.0899

                     40                     41                     42
                      A                      A                      A
 Frequencies --   3088.0971              3088.2422              3116.9133
 Red. masses --      1.0398                 1.0398                 1.0600
 Frc consts  --      5.8421                 5.8429                 6.0676
 IR Inten    --      1.7172                57.4539                26.2489

                     43                     44                     45
                      A                      A                      A
 Frequencies --   3137.3862              3137.3902              3156.6422
 Red. masses --      1.1009                 1.1009                 1.1032
 Frc consts  --      6.3845                 6.3845                 6.4769
 IR Inten    --     28.2839                21.4522                11.3501

                     46                     47                     48
                      A                      A                      A
 Frequencies --   3185.6467              3186.9606              3193.9669
 Red. masses --      1.0920                 1.0931                 1.0905
 Frc consts  --      6.5295                 6.5412                 6.5546
 IR Inten    --      5.9411                11.6509                26.3690

                     49                     50                     51
                      A                      A                      A
 Frequencies --   3194.1610              3212.9290              3213.0309
 Red. masses --      1.0911                 1.0961                 1.0956
 Frc consts  --      6.5589                 6.6667                 6.6642
 IR Inten    --      3.8445                77.5050                44.3347

 - Thermochemistry -
 -------------------
 Temperature   298.150 Kelvin.  Pressure   1.00000 Atm.
 Atom     1 has atomic number  6 and mass  12.00000

 Molecular mass:    96.09390 amu.
 Principal axes and moments of inertia in atomic units:
                           1         2         3
     Eigenvalues --   229.598741739.485471812.60045
           X            0.99989   0.01465   0.00001
           Y           -0.01465   0.99989   0.00008
           Z           -0.00001  -0.00008   1.00000
 This molecule is an asymmetric top.
 Rotational symmetry number  1.
 Rotational temperatures (Kelvin)      0.37724     0.04979     0.04778
 Rotational constants (GHZ):           7.86041     1.03751     0.99566
 Zero-point vibrational energy     452122.0 (Joules/Mol)
                                  108.05975 (Kcal/Mol)
 Warning -- explicit consideration of  11 degrees of freedom as
           vibrations may cause significant error
 Vibrational temperatures:     58.07    64.99   165.48   178.07   292.53
          (Kelvin)            308.61   495.96   579.15   747.21   801.48
                              801.55  1039.62  1069.18  1276.42  1333.98
                             1393.87  1432.78  1476.49  1481.06  1483.96
                             1553.19  1553.58  1591.33  1659.50  1766.04
                             1844.58  1860.74  1887.66  2026.91  2030.41
                             2076.38  2077.12  2133.49  2140.80  2141.64
                             2149.95  2164.44  2527.32  2544.05  4443.08
                             4443.29  4484.54  4514.00  4514.00  4541.70
                             4583.44  4585.33  4595.41  4595.69  4622.69
                             4622.83

 Zero-point correction=                           0.172204 (Hartree/Particle)
 Thermal correction to Energy=                    0.181169
 Thermal correction to Enthalpy=                  0.182113
 Thermal correction to Gibbs Free Energy=         0.137527
 Sum of electronic and zero-point Energies=           -273.737436
 Sum of electronic and thermal Energies=              -273.728471
 Sum of electronic and thermal Enthalpies=            -273.727527
 Sum of electronic and thermal Free Energies=         -273.772113

                     E (Thermal)             CV                S
                      KCal/Mol        Cal/Mol-Kelvin    Cal/Mol-Kelvin
 Total                  113.685             30.878             93.839
 Electronic               0.000              0.000              0.000
 Translational            0.889              2.981             39.599
 Rotational               0.889              2.981             28.073
 Vibrational            111.908             24.917             26.168
 Vibration     1          0.594              1.981              5.241
 Vibration     2          0.595              1.979              5.018
 Vibration     3          0.608              1.937              3.183
 Vibration     4          0.610              1.929              3.041
 Vibration     5          0.639              1.835              2.103
 Vibration     6          0.644              1.819              2.005
 Vibration     7          0.723              1.586              1.190
 Vibration     8          0.768              1.465              0.953
 Vibration     9          0.874              1.207              0.611
 Vibration    10          0.913              1.124              0.530
 Vibration    11          0.913              1.124              0.530

                           ! Non-Optimized Parameters !
 Normal termination of Gaussian 16 at Fri Apr 29 13:31:27 2022.
