 Gaussian 16, Revision A.03,
 Gaussian 16:  ES64L-G16RevA.03 25-Dec-2016

 ----------------------------------------------------------------------
 # opt freq 6-31+g(d,p) geom=check guess=check iop(1/8=4) scrf(smd,solv
 ent=ethanol) m052x scf=(xqc,direct)
 ----------------------------------------------------------------------

 -------------------
 Title Card Required
 -------------------
 Structure from the checkpoint file:  "DPPHFGbp.chk"
 Charge =  0 Multiplicity = 2

 SCF Done:  E(UM052X) =  -1417.80325400     A.U. after   23 cycles
 SCF Done:  E(UM052X) =  -1417.80321889     A.U. after   23 cycles
 SCF Done:  E(UM052X) =  -1417.80383752     A.U. after   22 cycles
 SCF Done:  E(UM052X) =  -1417.80264067     A.U. after   22 cycles
 SCF Done:  E(UM052X) =  -1417.80337467     A.U. after   23 cycles
 SCF Done:  E(UM052X) =  -1417.80398897     A.U. after   14 cycles
 SCF Done:  E(UM052X) =  -1417.80302711     A.U. after   24 cycles
 SCF Done:  E(UM052X) =  -1417.80403202     A.U. after   21 cycles
 SCF Done:  E(UM052X) =  -1417.80412593     A.U. after   20 cycles
 SCF Done:  E(UM052X) =  -1417.80367127     A.U. after   21 cycles
 SCF Done:  E(UM052X) =  -1417.80413285     A.U. after   22 cycles
 SCF Done:  E(UM052X) =  -1417.80413608     A.U. after   17 cycles
 SCF Done:  E(UM052X) =  -1417.80413626     A.U. after   18 cycles
 SCF Done:  E(UM052X) =  -1417.80413643     A.U. after   13 cycles
 SCF Done:  E(UM052X) =  -1417.80413655     A.U. after   13 cycles
 Optimization completed.
    -- Stationary point found.
 Normal termination of Gaussian 16 at Fri Apr 29 15:53:34 2022.

 ----------------------------------------------------------------------
 #N Geom=AllCheck Guess=TCheck SCRF=Check Test GenChk UM052X/6-31+G(d,p
 ) Freq
 ----------------------------------------------------------------------

 Structure from the checkpoint file:  "DPPHFGbp.chk"
 -------------------
 Title Card Required
 -------------------
 Charge =  0 Multiplicity = 2

                         Standard orientation:
 ---------------------------------------------------------------------
 Center     Atomic      Atomic             Coordinates (Angstroms)
 Number     Number       Type             X           Y           Z
 ---------------------------------------------------------------------
      1          7           0       -1.560846   -0.206268    0.151934
      2          7           0       -0.594918   -1.093188    0.029291
      3          6           0       -2.861451   -0.635184   -0.212954
      4          6           0       -3.977800   -0.180559    0.495825
      5          6           0       -2.998002   -1.531960   -1.276200
      6          6           0       -5.240109   -0.631553    0.127104
      7          1           0       -3.860788    0.497946    1.330926
      8          6           0       -4.267614   -1.975174   -1.628988
      9          1           0       -2.121491   -1.858098   -1.820285
     10          6           0       -5.390275   -1.527131   -0.932341
     11          1           0       -6.107496   -0.288894    0.677577
     12          1           0       -4.379437   -2.664896   -2.456461
     13          1           0       -6.377243   -1.873180   -1.213647
     14          6           0        0.682956   -0.677914   -0.134753
     15          6           0        1.166933    0.429969   -0.891111
     16          6           0        1.713619   -1.481382    0.424283
     17          6           0        2.509074    0.738133   -1.011097
     18          6           0        3.059071   -1.233883    0.288839
     19          6           0        3.441012   -0.096810   -0.415522
     20          1           0        2.819603    1.590646   -1.599514
     21          1           0        3.790073   -1.884815    0.749171
     22          6           0       -1.353361    1.063670    0.782622
     23          6           0       -1.926302    2.209511    0.229792
     24          6           0       -0.573744    1.124680    1.939133
     25          6           0       -1.702513    3.437186    0.844224
     26          1           0       -2.519708    2.140139   -0.674001
     27          6           0       -0.356245    2.360368    2.539536
     28          1           0       -0.160470    0.218481    2.366321
     29          6           0       -0.916524    3.515728    1.994028
     30          1           0       -2.135368    4.332911    0.416617
     31          1           0        0.243082    2.416991    3.439636
     32          1           0       -0.743081    4.475073    2.465862
     33          7           0        4.849508    0.210391   -0.548733
     34          8           0        5.652843   -0.555733   -0.042515
     35          8           0        5.163157    1.219501   -1.158209
     36          7           0        0.272648    1.223625   -1.722534
     37          8           0       -0.692008    0.665196   -2.216200
     38          8           0        0.560292    2.391867   -1.917464
     39          8           0        1.988880   -3.647406    1.114849
     40          8           0        0.482833   -2.468518    2.103948
     41          7           0        1.355321   -2.618521    1.271186
 ---------------------------------------------------------------------

 SCF Done:  E(UM052X) =  -1417.80413655     A.U. after    1 cycles

 The electronic state is 2-A.
 Alpha  occ. eigenvalues --  -19.75856 -19.75664 -19.75637 -19.75568 -19.75137
 Alpha  occ. eigenvalues --  -19.75133 -15.08594 -15.08574 -15.08259 -14.93481
 Alpha  occ. eigenvalues --  -14.87003 -10.69676 -10.68031 -10.67789 -10.67062
 Alpha  occ. eigenvalues --  -10.65129 -10.65101 -10.64688 -10.64292 -10.60340
 Alpha  occ. eigenvalues --  -10.60268 -10.59925 -10.59725 -10.59658 -10.59583
 Alpha  occ. eigenvalues --  -10.59534 -10.59306 -10.59246 -10.59190  -1.40992
 Alpha  occ. eigenvalues --   -1.40870  -1.40453  -1.22058  -1.21678  -1.21119
 Alpha  occ. eigenvalues --   -1.20895  -1.07122  -1.01937  -0.99643  -0.98041
 Alpha  occ. eigenvalues --   -0.97721  -0.94285  -0.88905  -0.87484  -0.86864
 Alpha  occ. eigenvalues --   -0.86009  -0.85345  -0.83868  -0.79969  -0.74692
 Alpha  occ. eigenvalues --   -0.73221  -0.72400  -0.71282  -0.70893  -0.70033
 Alpha  occ. eigenvalues --   -0.68657  -0.67648  -0.66411  -0.65957  -0.65771
 Alpha  occ. eigenvalues --   -0.64956  -0.64654  -0.64312  -0.63989  -0.62830
 Alpha  occ. eigenvalues --   -0.62480  -0.60085  -0.59245  -0.57873  -0.56651
 Alpha  occ. eigenvalues --   -0.55286  -0.53815  -0.53358  -0.52599  -0.52034
 Alpha  occ. eigenvalues --   -0.51060  -0.50876  -0.50494  -0.49635  -0.46562
 Alpha  occ. eigenvalues --   -0.45462  -0.44692  -0.44026  -0.43804  -0.43195
 Alpha  occ. eigenvalues --   -0.42905  -0.42578  -0.42087  -0.41841  -0.41726
 Alpha  occ. eigenvalues --   -0.41563  -0.41376  -0.41043  -0.40875  -0.40675
 Alpha  occ. eigenvalues --   -0.37139  -0.36389  -0.33578  -0.32940  -0.32279
 Alpha  occ. eigenvalues --   -0.31782  -0.25322
 Alpha virt. eigenvalues --   -0.07756  -0.07407  -0.05823  -0.00123   0.00347
 Alpha virt. eigenvalues --    0.01009   0.02308   0.02579   0.03980   0.04228
 Alpha virt. eigenvalues --    0.05414   0.06067   0.06623   0.07254   0.07288

  Beta  occ. eigenvalues --  -19.75791 -19.75680 -19.75666 -19.75483 -19.75109
  Beta  occ. eigenvalues --  -19.75099 -15.08609 -15.08579 -15.08271 -14.92719
  Beta  occ. eigenvalues --  -14.86420 -10.69688 -10.67926 -10.67708 -10.66979
  Beta  occ. eigenvalues --  -10.65170 -10.65134 -10.64760 -10.64398 -10.60276
  Beta  occ. eigenvalues --  -10.60204 -10.59831 -10.59653 -10.59633 -10.59606
  Beta  occ. eigenvalues --  -10.59521 -10.59323 -10.59290 -10.59135  -1.40962
  Beta  occ. eigenvalues --   -1.40827  -1.40416  -1.21724  -1.21591  -1.21056
  Beta  occ. eigenvalues --   -1.19642  -1.06752  -1.01308  -0.99513  -0.97857
  Beta  occ. eigenvalues --   -0.97482  -0.93618  -0.88710  -0.87362  -0.86741
  Beta  occ. eigenvalues --   -0.85909  -0.85075  -0.83856  -0.79366  -0.74318
  Beta  occ. eigenvalues --   -0.72887  -0.72112  -0.71173  -0.70758  -0.69862
  Beta  occ. eigenvalues --   -0.68455  -0.67497  -0.66292  -0.65801  -0.65427
  Beta  occ. eigenvalues --   -0.64845  -0.64485  -0.64235  -0.63709  -0.62733
  Beta  occ. eigenvalues --   -0.62444  -0.59338  -0.58896  -0.57437  -0.55692
  Beta  occ. eigenvalues --   -0.54950  -0.53673  -0.53120  -0.52454  -0.51570
  Beta  occ. eigenvalues --   -0.50910  -0.50795  -0.50293  -0.48494  -0.46286
  Beta  occ. eigenvalues --   -0.44693  -0.44328  -0.43838  -0.43638  -0.42839
  Beta  occ. eigenvalues --   -0.42746  -0.42468  -0.41793  -0.41656  -0.41488
  Beta  occ. eigenvalues --   -0.41376  -0.41048  -0.40852  -0.40638  -0.40076
  Beta  occ. eigenvalues --   -0.36624  -0.34364  -0.33161  -0.32402  -0.31984
  Beta  occ. eigenvalues --   -0.30329
  Beta virt. eigenvalues --   -0.10799  -0.07620  -0.05966  -0.05210   0.00201
  Beta virt. eigenvalues --    0.00555   0.01156   0.02618   0.03113   0.04000
  Beta virt. eigenvalues --    0.05379   0.05739   0.06171   0.06646   0.07284

 Mulliken charges and spin densities:
               1          2
     1  N    0.447783   0.347252
     2  N   -0.073721   0.327062
     3  C   -0.779663  -0.102320
     4  C    0.440268   0.098384
     5  C    0.548474   0.101633
     6  C   -0.417123  -0.057716
     7  H    0.202428  -0.003964
     8  C   -0.455943  -0.038338
     9  H    0.199790  -0.004187
    10  C   -0.062372   0.096634
    11  H    0.197033   0.001876
    12  H    0.197115   0.001995
    13  H    0.193705  -0.004216
    14  C   -0.138281  -0.021879
    15  C    1.054522   0.080679
    16  C   -0.065390   0.064498
    17  C   -0.589509  -0.049422
    18  C    0.308487  -0.029916
    19  C   -0.561185   0.074005
    20  H    0.257279   0.001789
    21  H    0.258033   0.000952
    22  C   -0.201811  -0.024000
    23  C   -0.240594   0.049323
    24  C   -0.048812   0.044835
    25  C   -0.162805  -0.028950
    26  H    0.212262  -0.002453
    27  C   -0.349067  -0.029542
    28  H    0.206100  -0.002492
    29  C   -0.177367   0.054300
    30  H    0.198544   0.001203
    31  H    0.199703   0.001510
    32  H    0.197135  -0.002436
    33  N   -0.137088  -0.003318
    34  O   -0.106976   0.011372
    35  O   -0.109814   0.013837
    36  N   -0.318022  -0.000192
    37  O    0.003661  -0.009550
    38  O   -0.030898   0.030910
    39  O   -0.078758  -0.005289
    40  O   -0.070540   0.021865
    41  N   -0.146583  -0.005733
 Sum of Mulliken charges =  -0.00000   1.00000

 Dipole moment (field-independent basis, Debye):
    X=             -7.2857    Y=              3.6613    Z=              1.8650  Tot=              8.3645
 Quadrupole moment (field-independent basis, Debye-Ang):
   XX=           -173.7392   YY=           -173.5308   ZZ=           -164.6896
   XY=             -1.4999   XZ=              4.8559   YZ=             23.3286

  Exact polarizability: 645.284  -2.637 408.215   9.286   0.705 317.189
 Approx polarizability: 453.917   3.043 363.496  15.994  -1.638 285.577

                      1                      2                      3
                      A                      A                      A
 Frequencies --     22.6837                25.3217                45.3526
 Red. masses --      7.6949                 9.1387                 7.0891
 Frc consts  --      0.0023                 0.0035                 0.0086
 IR Inten    --      0.6962                 0.5197                 2.7113

                      4                      5                      6
                      A                      A                      A
 Frequencies --     48.2604                51.0152                53.9943
 Red. masses --      7.2358                 7.2935                10.8584
 Frc consts  --      0.0099                 0.0112                 0.0187
 IR Inten    --      0.4862                 1.4209                 1.1200

                      7                      8                      9
                      A                      A                      A
 Frequencies --     62.4521                80.0047                89.2108
 Red. masses --      6.0740                 6.8502                 4.2137
 Frc consts  --      0.0140                 0.0258                 0.0198
 IR Inten    --      2.4001                 1.2965                 0.8109

                     10                     11                     12
                      A                      A                      A
 Frequencies --    102.2962               126.3794               148.9877
 Red. masses --      9.6201                 9.1394                10.2657
 Frc consts  --      0.0593                 0.0860                 0.1343
 IR Inten    --      1.7660                16.7554                12.7038

                     13                     14                     15
                      A                      A                      A
 Frequencies --    152.5389               180.6431               190.7753
 Red. masses --      9.6033                 8.5260                 5.9131
 Frc consts  --      0.1317                 0.1639                 0.1268
 IR Inten    --      8.8098                 0.6830                 5.1827

                     16                     17                     18
                      A                      A                      A
 Frequencies --    207.6855               243.6918               263.0865
 Red. masses --      9.2971                 4.6721                 5.8145
 Frc consts  --      0.2363                 0.1635                 0.2371
 IR Inten    --      4.2967                 5.4042                 9.7085

                     19                     20                     21
                      A                      A                      A
 Frequencies --    286.4451               313.8360               326.8379
 Red. masses --      6.8898                 5.7918                 9.5289
 Frc consts  --      0.3331                 0.3361                 0.5997
 IR Inten    --      2.6945                 7.5975                 4.8194

                     22                     23                     24
                      A                      A                      A
 Frequencies --    340.0437               367.5556               379.4974
 Red. masses --     14.1431                10.6203                 6.8378
 Frc consts  --      0.9635                 0.8453                 0.5802
 IR Inten    --      1.6186                 3.6749                27.1666

                     25                     26                     27
                      A                      A                      A
 Frequencies --    420.8253               425.6543               435.8980
 Red. masses --      2.9446                 3.0674                 8.0075
 Frc consts  --      0.3072                 0.3274                 0.8964
 IR Inten    --      0.6973                 6.7771                34.1960

                     28                     29                     30
                      A                      A                      A
 Frequencies --    438.4899               452.3000               482.4998
 Red. masses --      6.9182                 5.1541                 5.5222
 Frc consts  --      0.7837                 0.6212                 0.7575
 IR Inten    --      4.6957                19.9889                21.5974

                     31                     32                     33
                      A                      A                      A
 Frequencies --    527.1526               548.6845               556.6123
 Red. masses --      4.3969                 4.7071                 5.7299
 Frc consts  --      0.7199                 0.8349                 1.0459
 IR Inten    --     16.8889                18.2878                 1.8410

                     34                     35                     36
                      A                      A                      A
 Frequencies --    572.7085               597.2170               622.1461
 Red. masses --      6.5714                 5.6507                 6.3377
 Frc consts  --      1.2699                 1.1874                 1.4453
 IR Inten    --     13.3505                16.2137                 0.3481

                     37                     38                     39
                      A                      A                      A
 Frequencies --    626.6554               636.7195               677.0433
 Red. masses --      6.1952                 7.0410                 7.0109
 Frc consts  --      1.4334                 1.6818                 1.8935
 IR Inten    --      3.0328                27.6733                10.1197

                     40                     41                     42
                      A                      A                      A
 Frequencies --    705.4747               716.9188               735.7001
 Red. masses --      2.0571                 2.1328                 8.1369
 Frc consts  --      0.6032                 0.6459                 2.5948
 IR Inten    --     67.9518                63.2625               144.5432

                     43                     44                     45
                      A                      A                      A
 Frequencies --    743.4309               755.5750               761.2442
 Red. masses --      7.5619                 4.7340                 7.6467
 Frc consts  --      2.4624                 1.5923                 2.6108
 IR Inten    --     58.1266                49.9426                97.0362

                     46                     47                     48
                      A                      A                      A
 Frequencies --    781.8856               787.5647               790.3584
 Red. masses --      6.4161                 1.8297                 4.6959
 Frc consts  --      2.3110                 0.6686                 1.7283
 IR Inten    --     64.2024               109.6170                 8.8697

                     49                     50                     51
                      A                      A                      A
 Frequencies --    800.1224               829.1332               856.7167
 Red. masses --      2.5535                 8.4884                12.2144
 Frc consts  --      0.9632                 3.4381                 5.2820
 IR Inten    --     55.1470                36.7858                15.9037

                     52                     53                     54
                      A                      A                      A
 Frequencies --    861.2410               867.5845               879.8116
 Red. masses --      1.7639                 2.6420                 1.2429
 Frc consts  --      0.7708                 1.1717                 0.5669
 IR Inten    --      1.5323                18.7916                 0.7982

                     55                     56                     57
                      A                      A                      A
 Frequencies --    951.6995               962.1190               966.4867
 Red. masses --      1.9424                 2.3574                 1.5913
 Frc consts  --      1.0365                 1.2857                 0.8758
 IR Inten    --     33.4345                20.9682                21.9228

                     58                     59                     60
                      A                      A                      A
 Frequencies --    973.4522               975.1828               991.6509
 Red. masses --      1.5740                 1.5750                 7.1053
 Frc consts  --      0.8788                 0.8825                 4.1167
 IR Inten    --      7.2752                 3.9783                32.9234

                     61                     62                     63
                      A                      A                      A
 Frequencies --    995.7245              1017.9933              1019.5292
 Red. masses --      8.2440                 1.4769                 4.2736
 Frc consts  --      4.8158                 0.9017                 2.6172
 IR Inten    --    100.3658                 3.0447                 5.0502

                     64                     65                     66
                      A                      A                      A
 Frequencies --   1022.1882              1027.2557              1038.2975
 Red. masses --      5.6540                 1.3629                 1.3131
 Frc consts  --      3.4807                 0.8474                 0.8340
 IR Inten    --      8.9906                 0.8214                 0.0247

                     67                     68                     69
                      A                      A                      A
 Frequencies --   1045.8465              1062.8371              1066.2824
 Red. masses --      1.3113                 2.2409                 1.9130
 Frc consts  --      0.8451                 1.4914                 1.2815
 IR Inten    --      0.0477                 8.1146                15.6592

                     70                     71                     72
                      A                      A                      A
 Frequencies --   1119.9805              1121.2303              1128.7939
 Red. masses --      1.4768                 1.4944                 1.6424
 Frc consts  --      1.0914                 1.1069                 1.2330
 IR Inten    --     36.6185                50.7274               419.1416

                     73                     74                     75
                      A                      A                      A
 Frequencies --   1172.9272              1175.8904              1178.8115
 Red. masses --      2.2473                 1.1302                 1.1003
 Frc consts  --      1.8216                 0.9207                 0.9008
 IR Inten    --     12.5589                 0.0950                 1.3660

                     76                     77                     78
                      A                      A                      A
 Frequencies --   1196.2820              1203.7264              1232.3604
 Red. masses --      1.1258                 1.2842                 3.1930
 Frc consts  --      0.9492                 1.0964                 2.8571
 IR Inten    --      6.5389                12.5068               260.3410

                     79                     80                     81
                      A                      A                      A
 Frequencies --   1239.7406              1282.3069              1315.9077
 Red. masses --      2.0938                 4.2746                 3.6732
 Frc consts  --      1.8961                 4.1412                 3.7475
 IR Inten    --    177.3334               374.9787                 7.6136

                     82                     83                     84
                      A                      A                      A
 Frequencies --   1350.7243              1358.1401              1366.3360
 Red. masses --      2.8642                 2.2956                 2.0833
 Frc consts  --      3.0789                 2.4948                 2.2915
 IR Inten    --     25.6283                31.2828                 9.1864

                     85                     86                     87
                      A                      A                      A
 Frequencies --   1368.5593              1374.5151              1432.0759
 Red. masses --      2.8868                 5.9076                12.3933
 Frc consts  --      3.1856                 6.5760                14.9751
 IR Inten    --      2.4918               232.7309              2187.1980

                     88                     89                     90
                      A                      A                      A
 Frequencies --   1454.2125              1468.7804              1483.3676
 Red. masses --      7.3751                 5.0595                10.7840
 Frc consts  --      9.1892                 6.4309                13.9806
 IR Inten    --    439.0341               281.8584               485.9802

                     91                     92                     93
                      A                      A                      A
 Frequencies --   1489.1835              1507.9275              1517.3517
 Red. masses --      5.9907                 2.4442                 2.7928
 Frc consts  --      7.8275                 3.2746                 3.7885
 IR Inten    --     29.3725                18.2311                20.9122

                     94                     95                     96
                      A                      A                      A
 Frequencies --   1538.0034              1541.2340              1553.1597
 Red. masses --      2.6047                 2.3144                 6.0397
 Frc consts  --      3.6302                 3.2392                 8.5842
 IR Inten    --     45.3232                19.8820               259.8980

                     97                     98                     99
                      A                      A                      A
 Frequencies --   1615.1431              1649.7381              1658.1575
 Red. masses --     10.4584                10.7464                13.7133
 Frc consts  --     16.0745                17.2323                22.2148
 IR Inten    --    281.5215               171.6700               540.6752

                    100                    101                    102
                      A                      A                      A
 Frequencies --   1673.0310              1676.2589              1677.8580
 Red. masses --      6.2527                 6.0262                11.1587
 Frc consts  --     10.3115                 9.9764                18.5086
 IR Inten    --      8.7187                 5.7042               926.5121

                    103                    104                    105
                      A                      A                      A
 Frequencies --   1680.1327              1682.0986              1696.0272
 Red. masses --      6.4944                 6.3835                 9.0474
 Frc consts  --     10.8014                10.6417                15.3335
 IR Inten    --      7.0348                56.4174              1317.0699

                    106                    107                    108
                      A                      A                      A
 Frequencies --   3257.9900              3258.4366              3262.4087
 Red. masses --      1.0893                 1.0880                 1.0904
 Frc consts  --      6.8123                 6.8063                 6.8377
 IR Inten    --      1.1953                 0.4359                 4.8111

                    109                    110                    111
                      A                      A                      A
 Frequencies --   3266.2777              3267.7188              3273.8172
 Red. masses --      1.0912                 1.0927                 1.0945
 Frc consts  --      6.8587                 6.8748                 6.9115
 IR Inten    --      6.3156                 2.3329                12.7803

                    112                    113                    114
                      A                      A                      A
 Frequencies --   3274.6748              3280.6359              3280.7160
 Red. masses --      1.0962                 1.0993                 1.0973
 Frc consts  --      6.9261                 6.9708                 6.9584
 IR Inten    --      1.2731                 7.1192                 6.3852

                    115                    116                    117
                      A                      A                      A
 Frequencies --   3285.7479              3302.5103              3304.5862
 Red. masses --      1.0958                 1.0937                 1.0945
 Frc consts  --      6.9701                 7.0281                 7.0420
 IR Inten    --      1.4981                54.5406                45.5862

 - Thermochemistry -
 -------------------
 Temperature   298.150 Kelvin.  Pressure   1.00000 Atm.
 Atom     1 has atomic number  7 and mass  14.00307

 Molecular mass:   394.07876 amu.
 Principal axes and moments of inertia in atomic units:
                           1         2         3
     Eigenvalues --  6775.15745********************
           X            0.99999   0.00304   0.00399
           Y           -0.00322   0.99893   0.04616
           Z           -0.00384  -0.04617   0.99893
 This molecule is an asymmetric top.
 Rotational symmetry number  1.
 Warning -- assumption of classical behavior for rotation
           may cause significant error
 Rotational temperatures (Kelvin)      0.01278     0.00607     0.00525
 Rotational constants (GHZ):           0.26638     0.12646     0.10940
 Zero-point vibrational energy     775263.9 (Joules/Mol)
                                  185.29252 (Kcal/Mol)
 Warning -- explicit consideration of  35 degrees of freedom as
           vibrations may cause significant error
 Vibrational temperatures:     32.64    36.43    65.25    69.44    73.40
          (Kelvin)             77.69    89.85   115.11   128.35   147.18
                              181.83   214.36   219.47   259.91   274.48
                              298.81   350.62   378.52   412.13   451.54
                              470.25   489.25   528.83   546.01   605.47
                              612.42   627.16   630.89   650.76   694.21
                              758.46   789.43   800.84   824.00   859.26
                              895.13   901.62   916.10   974.11  1015.02
                             1031.49  1058.51  1069.63  1087.10  1095.26
                             1124.96  1133.13  1137.15  1151.20  1192.94
                             1232.62  1239.13  1248.26  1265.85  1369.28
                             1384.27  1390.56  1400.58  1403.07  1426.76
                             1432.63  1464.67  1466.88  1470.70  1477.99
                             1493.88  1504.74  1529.19  1534.14  1611.40
                             1613.20  1624.08  1687.58  1691.84  1696.05
                             1721.18  1731.89  1773.09  1783.71  1844.95
                             1893.30  1943.39  1954.06  1965.85  1969.05
                             1977.62  2060.44  2092.29  2113.25  2134.24
                             2142.60  2169.57  2183.13  2212.84  2217.49
                             2234.65  2323.83  2373.61  2385.72  2407.12
                             2411.76  2414.06  2417.34  2420.16  2440.20
                             4687.52  4688.16  4693.88  4699.45  4701.52
                             4710.29  4711.53  4720.10  4720.22  4727.46
                             4751.58  4754.56

 Zero-point correction=                           0.295282 (Hartree/Particle)
 Thermal correction to Energy=                    0.318428
 Thermal correction to Enthalpy=                  0.319372
 Thermal correction to Gibbs Free Energy=         0.239312
 Sum of electronic and zero-point Energies=          -1417.508854
 Sum of electronic and thermal Energies=             -1417.485708
 Sum of electronic and thermal Enthalpies=           -1417.484764
 Sum of electronic and thermal Free Energies=        -1417.564825

                     E (Thermal)             CV                S
                      KCal/Mol        Cal/Mol-Kelvin    Cal/Mol-Kelvin
 Total                  199.817             87.566            168.502
 Electronic               0.000              0.000              1.377
 Translational            0.889              2.981             43.806
 Rotational               0.889              2.981             35.721
 Vibrational            198.039             81.605             87.598
 Vibration     1          0.593              1.985              6.384
 Vibration     2          0.593              1.985              6.166
 Vibration     3          0.595              1.979              5.010
 Vibration     4          0.595              1.978              4.887
 Vibration     5          0.595              1.977              4.778
 Vibration     6          0.596              1.976              4.665
 Vibration     7          0.597              1.972              4.378
 Vibration     8          0.600              1.963              3.891
 Vibration     9          0.602              1.957              3.677
 Vibration    10          0.604              1.947              3.410
 Vibration    11          0.611              1.927              3.000
 Vibration    12          0.618              1.904              2.685
 Vibration    13          0.619              1.900              2.640
 Vibration    14          0.630              1.866              2.322
 Vibration    15          0.634              1.853              2.220
 Vibration    16          0.641              1.829              2.064
 Vibration    17          0.659              1.773              1.776
 Vibration    18          0.670              1.740              1.641
 Vibration    19          0.684              1.699              1.495
 Vibration    20          0.702              1.647              1.342
 Vibration    21          0.710              1.622              1.276
 Vibration    22          0.720              1.595              1.212
 Vibration    23          0.740              1.539              1.090
 Vibration    24          0.749              1.514              1.041
 Vibration    25          0.783              1.425              0.889
 Vibration    26          0.787              1.414              0.873
 Vibration    27          0.796              1.392              0.840
 Vibration    28          0.799              1.386              0.831
 Vibration    29          0.811              1.356              0.789
 Vibration    30          0.839              1.289              0.703
 Vibration    31          0.882              1.190              0.594
 Vibration    32          0.904              1.143              0.547
 Vibration    33          0.912              1.125              0.531
 Vibration    34          0.929              1.090              0.499
 Vibration    35          0.955              1.038              0.454

 Optimization completed.
    -- Stationary point found.
 Normal termination of Gaussian 16 at Fri Apr 29 18:03:22 2022.
