 Gaussian 09, Revision B.01,
 Gaussian 09:  EM64L-G09RevB.01 12-Aug-2010

 -------------------------------------------------------
 #p opt freq 6-311+g(d,p) scrf=(smd,solvent=water) m052x
 -------------------------------------------------------

 ---------------
 1_ceto_f3_rad_+
 ---------------
 Symbolic Z-matrix:
 Charge =  1 Multiplicity = 2

 SCF Done:  E(UM052X) =  -571.673919701     A.U. after   22 cycles
 SCF Done:  E(UM052X) =  -571.674254534     A.U. after   15 cycles
 SCF Done:  E(UM052X) =  -571.674437546     A.U. after   14 cycles
 SCF Done:  E(UM052X) =  -571.674654757     A.U. after   14 cycles
 SCF Done:  E(UM052X) =  -571.675070063     A.U. after   16 cycles
 SCF Done:  E(UM052X) =  -571.675500260     A.U. after   16 cycles
 SCF Done:  E(UM052X) =  -571.675828787     A.U. after   16 cycles
 SCF Done:  E(UM052X) =  -571.675496348     A.U. after   16 cycles
 SCF Done:  E(UM052X) =  -571.675869309     A.U. after   23 cycles
 SCF Done:  E(UM052X) =  -571.675974737     A.U. after   23 cycles
 SCF Done:  E(UM052X) =  -571.675979251     A.U. after   12 cycles
 SCF Done:  E(UM052X) =  -571.675980801     A.U. after   13 cycles
 SCF Done:  E(UM052X) =  -571.675981837     A.U. after   12 cycles
 SCF Done:  E(UM052X) =  -571.675982367     A.U. after   11 cycles
 SCF Done:  E(UM052X) =  -571.675982409     A.U. after   10 cycles
 SCF Done:  E(UM052X) =  -571.675982426     A.U. after   11 cycles
 Optimization completed.
    -- Stationary point found.
 Normal termination of Gaussian 09 at Fri Jan 28 03:41:32 2022.

 ----------------------------------------------------------------------
 #P Geom=AllCheck Guess=TCheck SCRF=Check GenChk UM052X/6-311+G(d,p) Fr
 eq
 ----------------------------------------------------------------------

 1_ceto_f3_rad_+
 ---------------
 Redundant internal coordinates taken from checkpoint file:
 1_ceto_f3_rad_+.chk
 Charge =  1 Multiplicity = 2

                         Standard orientation:
 ---------------------------------------------------------------------
 Center     Atomic      Atomic             Coordinates (Angstroms)
 Number     Number       Type             X           Y           Z
 ---------------------------------------------------------------------
      1          6           0       -3.649902   -0.458878   -0.000048
      2          6           0       -2.786010   -1.564989   -0.000776
      3          6           0       -1.430252   -1.381185   -0.000656
      4          6           0       -0.902403   -0.056727    0.000157
      5          6           0       -1.782420    1.064111    0.000958
      6          6           0       -3.135624    0.845467    0.000838
      7          1           0       -4.718873   -0.614318   -0.000138
      8          1           0       -3.190905   -2.566103   -0.001463
      9          1           0       -0.756520   -2.221271   -0.001272
     10          1           0       -1.392192    2.065633    0.001791
     11          6           0        1.219935    1.340027   -0.000418
     12          6           0        2.640046    0.882236   -0.000122
     13          6           0        2.494920   -0.596686    0.000224
     14          7           0        0.443735    0.104352    0.000174
     15          7           0        1.269130   -0.998371    0.000412
     16          8           0        0.753310    2.436073   -0.001147
     17          1           0        3.162086    1.249403   -0.885634
     18          1           0        3.161742    1.249670    0.885499
     19          1           0       -3.810243    1.688905    0.001489
     20          6           0        3.625710   -1.541164    0.000405
     21          1           0        4.245062   -1.353911   -0.878771
     22          1           0        4.245400   -1.353072    0.879177
     23          1           0        3.273901   -2.568656    0.001029
 ---------------------------------------------------------------------

 SCF Done:  E(UM052X) =  -571.675982426     A.U. after    1 cycles

 The electronic state is 2-A.
 Alpha  occ. eigenvalues --  -19.71375 -14.94028 -14.85880 -10.74416 -10.68079
 Alpha  occ. eigenvalues --  -10.66832 -10.62158 -10.61543 -10.61461 -10.60739
 Alpha  occ. eigenvalues --  -10.60080 -10.60056 -10.57257  -1.26269  -1.21324
 Alpha  occ. eigenvalues --   -1.05712  -0.99605  -0.92414  -0.89982  -0.89655
 Alpha  occ. eigenvalues --   -0.84245  -0.78232  -0.74914  -0.70988  -0.67958
 Alpha  occ. eigenvalues --   -0.64869  -0.62869  -0.61523  -0.58766  -0.57532
 Alpha  occ. eigenvalues --   -0.55779  -0.53896  -0.53862  -0.53221  -0.52440
 Alpha  occ. eigenvalues --   -0.51067  -0.48018  -0.47737  -0.47388  -0.47229
 Alpha  occ. eigenvalues --   -0.44791  -0.43209  -0.38687  -0.37754  -0.35335
 Alpha  occ. eigenvalues --   -0.31484
 Alpha virt. eigenvalues --   -0.03150  -0.01572   0.00070   0.04315   0.05012
 Alpha virt. eigenvalues --    0.05760   0.06402   0.07528   0.08124   0.08350
 Alpha virt. eigenvalues --    0.08412   0.09675   0.09950   0.10077   0.10777

  Beta  occ. eigenvalues --  -19.71199 -14.93422 -14.85931 -10.74461 -10.68049
  Beta  occ. eigenvalues --  -10.66682 -10.61782 -10.61354 -10.61276 -10.60750
  Beta  occ. eigenvalues --  -10.60193 -10.60173 -10.57266  -1.25710  -1.20694
  Beta  occ. eigenvalues --   -1.05051  -0.98817  -0.92168  -0.89565  -0.89040
  Beta  occ. eigenvalues --   -0.83535  -0.77721  -0.74443  -0.70567  -0.67632
  Beta  occ. eigenvalues --   -0.64626  -0.61129  -0.61087  -0.58513  -0.57392
  Beta  occ. eigenvalues --   -0.55501  -0.53688  -0.53074  -0.52336  -0.51476
  Beta  occ. eigenvalues --   -0.50864  -0.47661  -0.47266  -0.47212  -0.44907
  Beta  occ. eigenvalues --   -0.44613  -0.43060  -0.37495  -0.35543  -0.34703
  Beta virt. eigenvalues --   -0.16300  -0.01420  -0.00200   0.01423   0.04264
  Beta virt. eigenvalues --    0.05764   0.06476   0.07083   0.07521   0.08149
  Beta virt. eigenvalues --    0.08380   0.08423   0.09682   0.10009   0.10010

 Mulliken atomic charges:
              1
     1  C   -0.008781
     2  C   -0.331150
     3  C    0.370635
     4  C   -0.567127
     5  C    0.475282
     6  C   -0.709394
     7  H    0.222535
     8  H    0.210606
     9  H    0.224534
    10  H    0.226065
    11  C    0.473937
    12  C   -0.802244
    13  C    0.338373
    14  N    0.332847
    15  N    0.038534
    16  O   -0.298479
    17  H    0.301196
    18  H    0.301204
    19  H    0.210031
    20  C   -0.630167
    21  H    0.215342
    22  H    0.215254
    23  H    0.190966
 Sum of Mulliken atomic charges =   1.00000

 Dipole moment (field-independent basis, Debye):
    X=              1.7233    Y=             -1.7979    Z=              0.0018  Tot=              2.4904
 Quadrupole moment (field-independent basis, Debye-Ang):
   XX=            -14.9982   YY=            -69.4481   ZZ=            -73.8262
   XY=              1.2884   XZ=              0.0002   YZ=              0.0160

  Exact polarizability: 438.835  17.225 184.794   0.018   0.018  97.765
 Approx polarizability: 246.352   3.274 157.390   0.002   0.013  90.621

 ******    1 imaginary frequencies (negative Signs) ******

                     1                      2                      3
                     A                      A                      A
 Frequencies --   -33.0669                 5.6471                97.5152
 Red. masses --     1.1890                 3.7901                 3.1757
 Frc consts  --     0.0008                 0.0001                 0.0178
 IR Inten    --     2.8006                 3.4232                 6.6283

                     4                      5                      6
                     A                      A                      A
 Frequencies --   113.7538               168.9123               200.0014
 Red. masses --     2.9494                 4.0833                 4.0055
 Frc consts  --     0.0225                 0.0686                 0.0944
 IR Inten    --    15.9517                 3.5720                 2.9107

                     7                      8                      9
                     A                      A                      A
 Frequencies --   303.0708               335.1628               371.7227
 Red. masses --     4.5344                 5.1143                 3.2276
 Frc consts  --     0.2454                 0.3385                 0.2628
 IR Inten    --     0.0872                11.0479                 3.2087

                    10                     11                     12
                     A                      A                      A
 Frequencies --   384.7148               387.8671               449.9372
 Red. masses --     3.0307                 5.4111                 2.0993
 Frc consts  --     0.2643                 0.4796                 0.2504
 IR Inten    --     3.1551                 8.3338                 0.1927

                    13                     14                     15
                     A                      A                      A
 Frequencies --   481.5159               583.6223               590.3195
 Red. masses --     3.3805                 5.0683                 5.6715
 Frc consts  --     0.4618                 1.0171                 1.1645
 IR Inten    --     5.4680               390.6028                43.9300

                    16                     17                     18
                     A                      A                      A
 Frequencies --   599.7850               616.6424               640.5363
 Red. masses --     6.1401                 3.2772                 1.9444
 Frc consts  --     1.3014                 0.7342                 0.4700
 IR Inten    --     4.8595                21.0446                62.5998

                    19                     20                     21
                     A                      A                      A
 Frequencies --   686.2631               773.9120               801.0101
 Red. masses --     6.5959                 7.2366                 1.9715
 Frc consts  --     1.8302                 2.5537                 0.7453
 IR Inten    --     5.5929                53.8862               102.4554

                    22                     23                     24
                     A                      A                      A
 Frequencies --   820.0771               896.8650               921.4066
 Red. masses --     1.2929                 1.7819                 3.5149
 Frc consts  --     0.5123                 0.8445                 1.7582
 IR Inten    --     1.9169                 4.8687               390.6732

                    25                     26                     27
                     A                      A                      A
 Frequencies --   957.3084               977.4974              1002.4347
 Red. masses --     3.4143                 1.3528                 5.5532
 Frc consts  --     1.8435                 0.7616                 3.2878
 IR Inten    --   310.5600                 6.2766                57.6795

                    28                     29                     30
                     A                      A                      A
 Frequencies --  1026.9449              1031.6885              1033.8634
 Red. masses --     1.3515                 2.0024                 1.3505
 Frc consts  --     0.8397                 1.2557                 0.8505
 IR Inten    --     0.0006                61.0993                 1.9322

                    31                     32                     33
                     A                      A                      A
 Frequencies --  1046.5003              1055.7510              1074.1644
 Red. masses --     2.2197                 1.7887                 6.9774
 Frc consts  --     1.4323                 1.1747                 4.7433
 IR Inten    --   141.2789                26.5492               931.2488

                    34                     35                     36
                     A                      A                      A
 Frequencies --  1145.1427              1175.2275              1185.4418
 Red. masses --     1.5668                 2.5815                 1.2720
 Frc consts  --     1.2106                 2.1007                 1.0531
 IR Inten    --   214.2314                41.2918                 0.0023

                    37                     38                     39
                     A                      A                      A
 Frequencies --  1186.9119              1219.8837              1245.1942
 Red. masses --     1.2413                 1.2011                 1.9075
 Frc consts  --     1.0303                 1.0531                 1.7425
 IR Inten    --    10.4492                56.9543                28.9822

                    40                     41                     42
                     A                      A                      A
 Frequencies --  1365.8523              1376.8714              1390.8186
 Red. masses --     1.6994                 1.8890                 1.2816
 Frc consts  --     1.8679                 2.1099                 1.4607
 IR Inten    --   164.1148               107.7594               121.4296

                    43                     44                     45
                     A                      A                      A
 Frequencies --  1393.1430              1409.3059              1452.5939
 Red. masses --     2.5149                 1.9241                 1.1674
 Frc consts  --     2.8758                 2.2515                 1.4513
 IR Inten    --    11.8555               243.2761               208.1306

                    46                     47                     48
                     A                      A                      A
 Frequencies --  1454.8292              1473.5772              1495.2163
 Red. masses --     1.0437                 3.2602                 2.9795
 Frc consts  --     1.3015                 4.1710                 3.9247
 IR Inten    --    22.6707                68.6142                54.8698

                    49                     50                     51
                     A                      A                      A
 Frequencies --  1525.3766              1583.6488              1619.2761
 Red. masses --     2.6734                 3.3750                 5.5155
 Frc consts  --     3.6649                 4.9871                 8.5207
 IR Inten    --    35.8316                37.8668              2212.4716

                    52                     53                     54
                     A                      A                      A
 Frequencies --  1691.8036              1885.1876              3078.6434
 Red. masses --     7.0653                12.8416                 1.0377
 Frc consts  --    11.9146                26.8892                 5.7950
 IR Inten    --   187.4594               577.2160                 6.0647

                    55                     56                     57
                     A                      A                      A
 Frequencies --  3096.6629              3136.6436              3142.4083
 Red. masses --     1.0611                 1.0998                 1.1021
 Frc consts  --     5.9949                 6.3754                 6.4122
 IR Inten    --    48.8075                 1.2013                25.2435

                    58                     59                     60
                     A                      A                      A
 Frequencies --  3199.4094              3244.7373              3254.0151
 Red. masses --     1.1033                 1.0909                 1.0933
 Frc consts  --     6.6543                 6.7669                 6.8204
 IR Inten    --    12.2146                 0.7239                 4.2185

                    61                     62                     63
                     A                      A                      A
 Frequencies --  3263.4060              3295.8300              3314.2171
 Red. masses --     1.0965                 1.0944                 1.0938
 Frc consts  --     6.8805                 7.0043                 7.0787
 IR Inten    --     4.9242                16.4691                24.4018

 - Thermochemistry -
 -------------------
 Temperature   298.150 Kelvin.  Pressure   1.00000 Atm.
 Atom     1 has atomic number  6 and mass  12.00000

 Molecular mass:   174.07931 amu.
 Principal axes and moments of inertia in atomic units:
                           1         2         3
     Eigenvalues --  1018.737713328.446044324.77117
           X            0.99991  -0.01325   0.00000
           Y            0.01325   0.99991   0.00004
           Z            0.00000  -0.00004   1.00000
 This molecule is an asymmetric top.
 Rotational symmetry number  1.
 Warning -- assumption of classical behavior for rotation
           may cause significant error
 Rotational temperatures (Kelvin)      0.08502     0.02602     0.02003
 Rotational constants (GHZ):           1.77155     0.54222     0.41730
    1 imaginary frequencies ignored.
 Zero-point vibrational energy     482918.6 (Joules/Mol)
                                  115.42032 (Kcal/Mol)
 Warning -- explicit consideration of  16 degrees of freedom as
           vibrations may cause significant error
 Vibrational temperatures:      8.12   140.30   163.67   243.03   287.76
          (Kelvin)            436.05   482.22   534.83   553.52   558.05
                              647.36   692.79   839.70   849.34   862.96
                              887.21   921.59   987.38  1113.49  1152.47
                             1179.91  1290.39  1325.70  1377.35  1406.40
                             1442.28  1477.54  1484.37  1487.50  1505.68
                             1518.99  1545.48  1647.60  1690.89  1705.58
                             1707.70  1755.14  1791.55  1965.15  1981.01
                             2001.08  2004.42  2027.67  2089.96  2093.17
                             2120.15  2151.28  2194.67  2278.51  2329.77
                             2434.12  2712.36  4429.48  4455.40  4512.92
                             4521.22  4603.23  4668.45  4681.80  4695.31
                             4741.96  4768.41

 Zero-point correction=                           0.183934 (Hartree/Particle)
 Thermal correction to Energy=                    0.194329
 Thermal correction to Enthalpy=                  0.195273
 Thermal correction to Gibbs Free Energy=         0.144852
 Sum of electronic and zero-point Energies=           -571.492048
 Sum of electronic and thermal Energies=              -571.481654
 Sum of electronic and thermal Enthalpies=            -571.480710
 Sum of electronic and thermal Free Energies=         -571.531131

                     E (Thermal)             CV                S
                      KCal/Mol        Cal/Mol-Kelvin    Cal/Mol-Kelvin
 Total                  121.943             40.472            106.120
 Electronic               0.000              0.000              1.377
 Translational            0.889              2.981             41.370
 Rotational               0.889              2.981             31.062
 Vibrational            120.166             34.510             32.310
 Vibration     1          0.593              1.987              9.146
 Vibration     2          0.603              1.951              3.503
 Vibration     3          0.607              1.938              3.204
 Vibration     4          0.625              1.881              2.448
 Vibration     5          0.638              1.840              2.133
 Vibration     6          0.695              1.668              1.400
 Vibration     7          0.716              1.605              1.235
 Vibration     8          0.743              1.530              1.073
 Vibration     9          0.754              1.503              1.021
 Vibration    10          0.756              1.496              1.008
 Vibration    11          0.809              1.361              0.796
 Vibration    12          0.838              1.291              0.706
 Vibration    13          0.941              1.067              0.479
 Vibration    14          0.948              1.052              0.467
 Vibration    15          0.958              1.032              0.450
 Vibration    16          0.976              0.997              0.422

 Normal termination of Gaussian 09 at Fri Jan 28 03:56:00 2022.
