 Gaussian 09, Revision B.01,

 --------------------------------------------------------------
 #p opt freq 6-311+g(d,p) scrf=(smd,solvent=water) nosymm m052x
 --------------------------------------------------------------

 ---------
 CCl3OOH_1
 ---------
 Symbolic Z-matrix:
 Charge =  0 Multiplicity = 1

 SCF Done:  E(RM052X) =  -1569.60796951     A.U. after   13 cycles
 SCF Done:  E(RM052X) =  -1569.64104908     A.U. after   12 cycles
 SCF Done:  E(RM052X) =  -1569.65826595     A.U. after   12 cycles
 SCF Done:  E(RM052X) =  -1569.66106561     A.U. after   11 cycles
 SCF Done:  E(RM052X) =  -1569.66254349     A.U. after   11 cycles
 SCF Done:  E(RM052X) =  -1569.66323304     A.U. after   11 cycles
 SCF Done:  E(RM052X) =  -1569.66351544     A.U. after   10 cycles
 SCF Done:  E(RM052X) =  -1569.66359194     A.U. after   10 cycles
 SCF Done:  E(RM052X) =  -1569.66364161     A.U. after   10 cycles
 SCF Done:  E(RM052X) =  -1569.60065349     A.U. after   14 cycles
 Optimization completed.
    -- Stationary point found.

 1\1\GINC-NC126\FOpt\RM052X\6-311+G(d,p)\C1H1Cl3O2\EDGL\13-Dec-2021\0\\
 #p opt freq 6-311+g(d,p) scrf=(smd,solvent=water) nosymm m052x\\CCl3OO
 H_1\\0,1\C,1.5756036657,0.9109087973,0.1215796084\O,0.2435497983,0.663
 8780055,0.416019609\O,-0.3009634109,-0.1958484017,-0.5657187793\H,-0.4
 02407712,-1.0282893162,-0.0771990811\Cl,2.5399422765,-0.5821393103,0.1
 80983367\Cl,2.078318528,2.0222682018,1.3952202426\Cl,1.7568140744,1.67
 15695836,-1.4729982865\\Version=EM64L-G09RevB.01\HF=-1569.6863984\RMSD
 =6.833e-09\RMSF=5.235e-05\Dipole=-0.1157023,-0.8495159,0.3218931\Quadr

 Normal termination of Gaussian 09 at Mon Dec 13 17:01:11 2021.

 ----------------------------------------------------------------------
 #P Geom=AllCheck Guess=TCheck SCRF=Check GenChk RM052X/6-311+G(d,p) Fr
 eq
 ----------------------------------------------------------------------

 CCl3OOH_1
 ---------
 Redundant internal coordinates taken from checkpoint file:
 CCl3OOH.chk
 Charge =  0 Multiplicity = 1

 Optimization completed.

 1\1\GINC-NC126\Freq\RM052X\6-311+G(d,p)\C1H1Cl3O2\EDGL\13-Dec-2021\0\\
 #P Geom=AllCheck Guess=TCheck SCRF=Check GenChk RM052X/6-311+G(d,p) Fr
 eq\\CCl3OOH_1\\0,1\C,1.5756036657,0.9109087973,0.1215796084\O,0.243549
 7983,0.6638780055,0.416019609\O,-0.3009634109,-0.1958484017,-0.5657187
 793\H,-0.402407712,-1.0282893162,-0.0771990811\Cl,2.5399422765,-0.5821
 393103,0.180983367\Cl,2.078318528,2.0222682018,1.3952202426\Cl,1.75681
 40744,1.6715695836,-1.4729982865\\Version=EM64L-G09RevB.01\HF=-1569.68
 63984\RMSD=3.235e-09\RMSF=5.235e-05\ZeroPoint=0.0272604\Thermal=0.0339

 Normal termination of Gaussian 09 at Mon Dec 13 17:01:38 2021.

 --------------------------------------------------------------
 #p opt freq 6-311+g(d,p) scrf=(smd,solvent=water) nosymm m052x
 --------------------------------------------------------------

 --------
 CH3OOH_2
 --------
 Symbolic Z-matrix:
 Charge =  0 Multiplicity = 1

 1\1\GINC-NC126\FOpt\RM052X\6-311+G(d,p)\C1H1Cl3O2\EDGL\13-Dec-2021\0\\
 #p opt freq 6-311+g(d,p) scrf=(smd,solvent=water) nosymm m052x\\CH3OOH
 _2\\0,1\C,1.4224505166,0.8013229332,0.1547218027\O,0.1576113878,0.5321
 810224,0.6528077106\O,-0.4725722933,-0.4339842224,-0.1660807077\H,-1.1
 771690379,0.0841223493,-0.5861519796\Cl,1.3444639632,1.5144229259,-1.4
 724751224\Cl,2.0786781828,1.9641793698,1.304608132\Cl,2.4263715008,-0.
 6631970383,0.1106723245\\Version=EM64L-G09RevB.01\HF=-1569.6864381\RMS
 D=5.750e-09\RMSF=9.014e-05\Dipole=-0.680411,0.3678542,-0.4903708\Quadr

 Normal termination of Gaussian 09 at Mon Dec 13 17:06:55 2021.

 CH3OOH_2
 --------
 Redundant internal coordinates taken from checkpoint file:
 CCl3OOH.chk
 Charge =  0 Multiplicity = 1

 Normal termination of Gaussian 09 at Mon Dec 13 17:07:22 2021.

 --------
 CH3OOH_3
 --------
 Symbolic Z-matrix:
 Charge =  0 Multiplicity = 1

 Normal termination of Gaussian 09 at Mon Dec 13 17:09:38 2021.

 CH3OOH_3
 --------
 Redundant internal coordinates taken from checkpoint file:
 CCl3OOH.chk
 Charge =  0 Multiplicity = 1

 Normal termination of Gaussian 09 at Mon Dec 13 17:10:04 2021.
 Gaussian 09:  EM64L-G09RevB.01 12-Aug-2010
 SCF Done:  E(RM052X) =  -1569.68616131     A.U. after   11 cycles
 SCF Done:  E(RM052X) =  -1569.68639369     A.U. after   11 cycles
 SCF Done:  E(RM052X) =  -1569.68643170     A.U. after   10 cycles
 SCF Done:  E(RM052X) =  -1569.68644589     A.U. after    9 cycles
 SCF Done:  E(RM052X) =  -1569.68645245     A.U. after    9 cycles
 SCF Done:  E(RM052X) =  -1569.68645802     A.U. after    9 cycles
 SCF Done:  E(RM052X) =  -1569.68646252     A.U. after    9 cycles
 SCF Done:  E(RM052X) =  -1569.68646526     A.U. after    9 cycles
 SCF Done:  E(RM052X) =  -1569.68646761     A.U. after   10 cycles
    -- Stationary point found.
 Normal termination of Gaussian 09 at Mon Dec 13 17:13:08 2021.

                          Input orientation:
 ---------------------------------------------------------------------
 Center     Atomic      Atomic             Coordinates (Angstroms)
 Number     Number       Type             X           Y           Z
 ---------------------------------------------------------------------
      1          6           0        1.571247    0.914410    0.149292
      2          8           0        0.247269    0.693832    0.496935
      3          8           0       -0.336780   -0.205080   -0.425505
      4          1           0       -0.458991   -1.003407    0.112740
      5         17           0        1.706611    1.588444   -1.488447
      6         17           0        2.115582    2.087705    1.347052
      7         17           0        2.529591   -0.579615    0.258390
 ---------------------------------------------------------------------

 SCF Done:  E(RM052X) =  -1569.68646761     A.U. after    1 cycles

 Alpha  occ. eigenvalues -- -102.81868-102.81212-102.81122 -19.79484 -19.76190
 Alpha  occ. eigenvalues --  -10.82401  -9.85984  -9.85336  -9.85249  -7.58806
 Alpha  occ. eigenvalues --   -7.58143  -7.58074  -7.58059  -7.58059  -7.57437
 Alpha  occ. eigenvalues --   -7.57423  -7.57344  -7.57336  -1.33892  -1.12469
 Alpha  occ. eigenvalues --   -1.02031  -0.96572  -0.96114  -0.74597  -0.67086
 Alpha  occ. eigenvalues --   -0.63197  -0.62165  -0.56636  -0.52750  -0.45733
 Alpha  occ. eigenvalues --   -0.44414  -0.43849  -0.42989  -0.41636  -0.40434
 Alpha  occ. eigenvalues --   -0.39900  -0.38836
 Alpha virt. eigenvalues --   -0.00598   0.01592   0.04782   0.04924   0.06472
 Alpha virt. eigenvalues --    0.08303   0.08746   0.09449   0.11696   0.12095
 Alpha virt. eigenvalues --    0.12486   0.13924   0.14238   0.15690   0.16372

 Mulliken atomic charges:
              1
     1  C   -0.793588
     2  O    0.118282
     3  O   -0.212690
     4  H    0.347230
     5  Cl   0.179039
     6  Cl   0.241702
     7  Cl   0.120024
 Sum of Mulliken atomic charges =   0.00000

 Dipole moment (field-independent basis, Debye):
    X=             -0.3513    Y=             -2.0953    Z=              0.9500  Tot=              2.3273
 Quadrupole moment (field-independent basis, Debye-Ang):
   XX=            -56.0297   YY=            -52.4353   ZZ=            -55.5856
   XY=              1.2519   XZ=              0.1347   YZ=             -0.5191

  Exact polarizability:  66.725   2.134  79.136   5.522   2.594  75.728
 Approx polarizability:  59.811   0.487  72.657   4.605   2.900  70.875

                     1                      2                      3
                     A                      A                      A
 Frequencies --   140.9329               209.3670               246.8991
 Red. masses --     3.8085                13.8344                 3.7910
 Frc consts  --     0.0446                 0.3573                 0.1362
 IR Inten    --    54.6716                 0.4413                65.2550

                     4                      5                      6
                     A                      A                      A
 Frequencies --   277.3675               293.2185               347.5859
 Red. masses --     3.0298                 4.4526                20.0576
 Frc consts  --     0.1373                 0.2256                 1.4278
 IR Inten    --   104.3574                31.4380                 0.7210

                     7                      8                      9
                     A                      A                      A
 Frequencies --   421.9103               458.5497               572.1762
 Red. masses --    10.2829                18.2623                17.1920
 Frc consts  --     1.0785                 2.2624                 3.3162
 IR Inten    --    17.1517                 1.7689                36.9946

                    10                     11                     12
                     A                      A                      A
 Frequencies --   793.9642               890.6438              1002.1049
 Red. masses --    12.4097                12.6441                13.7655
 Frc consts  --     4.6091                 5.9095                 8.1446
 IR Inten    --   448.7207               304.2666               139.1561

                    13                     14                     15
                     A                      A                      A
 Frequencies --  1091.7348              1443.9903              3729.8018
 Red. masses --    11.0066                 1.1273                 1.0692
 Frc consts  --     7.7293                 1.3849                 8.7632
 IR Inten    --   136.4637               113.5852               238.9724

 - Thermochemistry -
 -------------------
 Temperature   298.150 Kelvin.  Pressure   1.00000 Atm.
 Atom     1 has atomic number  6 and mass  12.00000

 Molecular mass:   149.90421 amu.
 Principal axes and moments of inertia in atomic units:
                           1         2         3
     Eigenvalues --   922.733841075.550671210.71285
           X            0.49947  -0.28470   0.81821
           Y            0.65678   0.74034  -0.14332
           Z            0.56495  -0.60897  -0.55676
 This molecule is an asymmetric top.
 Rotational symmetry number  1.
 Warning -- assumption of classical behavior for rotation
           may cause significant error
 Rotational temperatures (Kelvin)      0.09387     0.08053     0.07154
 Rotational constants (GHZ):           1.95586     1.67797     1.49064
 Zero-point vibrational energy      71298.9 (Joules/Mol)
                                   17.04085 (Kcal/Mol)
 Warning -- explicit consideration of   9 degrees of freedom as
           vibrations may cause significant error
 Vibrational temperatures:    202.77   301.23   355.23   399.07   421.88
          (Kelvin)            500.10   607.03   659.75   823.23  1142.34
                             1281.44  1441.80  1570.76  2077.58  5366.35

 Zero-point correction=                           0.027156 (Hartree/Particle)
 Thermal correction to Energy=                    0.033853
 Thermal correction to Enthalpy=                  0.034797
 Thermal correction to Gibbs Free Energy=        -0.004621
 Sum of electronic and zero-point Energies=          -1569.659311
 Sum of electronic and thermal Energies=             -1569.652615
 Sum of electronic and thermal Enthalpies=           -1569.651671
 Sum of electronic and thermal Free Energies=        -1569.691088

                     E (Thermal)             CV                S
                      KCal/Mol        Cal/Mol-Kelvin    Cal/Mol-Kelvin
 Total                   21.243             22.233             82.961
 Electronic               0.000              0.000              0.000
 Translational            0.889              2.981             40.925
 Rotational               0.889              2.981             28.576
 Vibrational             19.466             16.271             13.461
 Vibration     1          0.615              1.912              2.791
 Vibration     2          0.642              1.826              2.049
 Vibration     3          0.661              1.768              1.753
 Vibration     4          0.678              1.715              1.550
 Vibration     5          0.688              1.686              1.455
 Vibration     6          0.725              1.580              1.177
 Vibration     7          0.784              1.423              0.886
 Vibration     8          0.817              1.342              0.770
 Vibration     9          0.928              1.091              0.500

 Optimization completed.
    -- Stationary point found.
 Normal termination of Gaussian 09 at Mon Dec 13 17:13:35 2021.
