 Gaussian 09, Revision B.01,

 --------------------------------------------------------------
 #p opt freq 6-311+g(d,p) scrf=(smd,solvent=water) nosymm m052x
 --------------------------------------------------------------

 --------
 CH3OOH_1
 --------
 Symbolic Z-matrix:
 Charge =  0 Multiplicity = 1

 SCF Done:  E(RM052X) =  -190.859035856     A.U. after   11 cycles
 SCF Done:  E(RM052X) =  -190.871299002     A.U. after   12 cycles
 SCF Done:  E(RM052X) =  -190.875770807     A.U. after   11 cycles
 SCF Done:  E(RM052X) =  -190.876121549     A.U. after   10 cycles
 SCF Done:  E(RM052X) =  -190.876158615     A.U. after    9 cycles
 SCF Done:  E(RM052X) =  -190.876159789     A.U. after    8 cycles
 Optimization completed.
    -- Stationary point found.
 Normal termination of Gaussian 09 at Mon Dec 13 17:14:09 2021.

 ----------------------------------------------------------------------
 #P Geom=AllCheck Guess=TCheck SCRF=Check GenChk RM052X/6-311+G(d,p) Fr
 eq
 ----------------------------------------------------------------------

 CH3OOH_1
 --------
 Redundant internal coordinates taken from checkpoint file:
 CH3OOH.chk
 Charge =  0 Multiplicity = 1

 SCF Done:  E(RM052X) =  -190.876159789     A.U. after    1 cycles
 ******    2 imaginary frequencies (negative Signs) ******
    2 imaginary frequencies ignored.
 Optimization completed.
 Normal termination of Gaussian 09 at Mon Dec 13 17:14:22 2021.

 --------------------------------------------------------------
 #p opt freq 6-311+g(d,p) scrf=(smd,solvent=water) nosymm m052x
 --------------------------------------------------------------

 --------
 CH3OOH_2
 --------
 Symbolic Z-matrix:
 Charge =  0 Multiplicity = 1

 SCF Done:  E(RM052X) =  -190.858998080     A.U. after   11 cycles
 SCF Done:  E(RM052X) =  -190.878021953     A.U. after   11 cycles
 SCF Done:  E(RM052X) =  -190.881244539     A.U. after   10 cycles
 Normal termination of Gaussian 09 at Mon Dec 13 17:14:56 2021.

 ----------------------------------------------------------------------
 #P Geom=AllCheck Guess=TCheck SCRF=Check GenChk RM052X/6-311+G(d,p) Fr
 eq
 ----------------------------------------------------------------------

 CH3OOH_2
 --------
 Redundant internal coordinates taken from checkpoint file:
 CH3OOH.chk
 Charge =  0 Multiplicity = 1

 ******    1 imaginary frequencies (negative Signs) ******
    1 imaginary frequencies ignored.
 Normal termination of Gaussian 09 at Mon Dec 13 17:15:09 2021.

 --------------------------------------------------------------
 #p opt freq 6-311+g(d,p) scrf=(smd,solvent=water) nosymm m052x
 --------------------------------------------------------------

 --------
 CH3OOH_3
 --------
 Symbolic Z-matrix:
 Charge =  0 Multiplicity = 1

 Normal termination of Gaussian 09 at Mon Dec 13 17:16:28 2021.

 ----------------------------------------------------------------------
 #P Geom=AllCheck Guess=TCheck SCRF=Check GenChk RM052X/6-311+G(d,p) Fr
 eq
 ----------------------------------------------------------------------

 CH3OOH_3
 --------
 Redundant internal coordinates taken from checkpoint file:
 CH3OOH.chk
 Charge =  0 Multiplicity = 1

 Normal termination of Gaussian 09 at Mon Dec 13 17:16:42 2021.
 Gaussian 09:  EM64L-G09RevB.01 12-Aug-2010
 SCF Done:  E(RM052X) =  -190.885124371     A.U. after   13 cycles
 SCF Done:  E(RM052X) =  -190.886042532     A.U. after   12 cycles
 SCF Done:  E(RM052X) =  -190.887761224     A.U. after   13 cycles
 SCF Done:  E(RM052X) =  -190.888266020     A.U. after   11 cycles
 SCF Done:  E(RM052X) =  -190.888254228     A.U. after   11 cycles
 SCF Done:  E(RM052X) =  -190.888365608     A.U. after   10 cycles
 SCF Done:  E(RM052X) =  -190.888392286     A.U. after   10 cycles
 SCF Done:  E(RM052X) =  -190.888403577     A.U. after   10 cycles
 SCF Done:  E(RM052X) =  -190.888405479     A.U. after    9 cycles
    -- Stationary point found.
 Normal termination of Gaussian 09 at Mon Dec 13 17:18:23 2021.

                          Input orientation:
 ---------------------------------------------------------------------
 Center     Atomic      Atomic             Coordinates (Angstroms)
 Number     Number       Type             X           Y           Z
 ---------------------------------------------------------------------
      1          6           0        1.512005    0.952926   -0.116320
      2          1           0        2.219599    0.221433   -0.503578
      3          1           0        1.618228    1.063465    0.962780
      4          1           0        1.655237    1.913625   -0.607104
      5          8           0        0.177829    0.570349   -0.443731
      6          8           0       -0.062580   -0.699378    0.146729
      7          1           0       -0.431663   -0.472291    1.011873
 ---------------------------------------------------------------------

 SCF Done:  E(RM052X) =  -190.888405479     A.U. after    1 cycles

 Alpha  occ. eigenvalues --  -19.73453 -19.72794 -10.60354  -1.27611  -1.03343
 Alpha  occ. eigenvalues --   -0.78001  -0.63037  -0.57141  -0.55936  -0.49959
 Alpha  occ. eigenvalues --   -0.45019  -0.39357  -0.36730
 Alpha virt. eigenvalues --    0.05979   0.07228   0.08419   0.09949   0.10284
 Alpha virt. eigenvalues --    0.18675   0.19648   0.19984   0.21154   0.22464
 Alpha virt. eigenvalues --    0.24300   0.26272   0.26854   0.28430   0.30145

 Mulliken atomic charges:
              1
     1  C   -0.316388
     2  H    0.169527
     3  H    0.166643
     4  H    0.185221
     5  O   -0.208294
     6  O   -0.336416
     7  H    0.339707
 Sum of Mulliken atomic charges =   0.00000

 Dipole moment (field-independent basis, Debye):
    X=              1.5200    Y=              1.3652    Z=              2.5203  Tot=              3.2444
 Quadrupole moment (field-independent basis, Debye-Ang):
   XX=            -15.3044   YY=            -18.7445   ZZ=            -16.7598
   XY=              2.7138   XZ=             -1.6751   YZ=             -0.6035

  Exact polarizability:  28.455   3.792  32.475  -1.718  -3.241  27.916
 Approx polarizability:  22.677   2.422  26.814  -1.168  -2.848  23.227

                     1                      2                      3
                     A                      A                      A
 Frequencies --   252.0060               272.6453               468.5771
 Red. masses --     1.1072                 1.1913                 3.5333
 Frc consts  --     0.0414                 0.0522                 0.4571
 IR Inten    --    83.1758               156.0181                10.1653

                     4                      5                      6
                     A                      A                      A
 Frequencies --   936.2373              1084.2731              1193.3992
 Red. masses --     5.0543                 9.2694                 1.2621
 Frc consts  --     2.6102                 6.4207                 1.0590
 IR Inten    --    43.9350                24.6920                 3.1607

                     7                      8                      9
                     A                      A                      A
 Frequencies --  1233.5747              1407.3875              1463.5532
 Red. masses --     1.5876                 1.1172                 1.1071
 Frc consts  --     1.4233                 1.3038                 1.3972
 IR Inten    --    10.5600                71.9423                 6.2263

                    10                     11                     12
                     A                      A                      A
 Frequencies --  1485.1299              1512.7082              3087.4252
 Red. masses --     1.0678                 1.0596                 1.0298
 Frc consts  --     1.3876                 1.4286                 5.7838
 IR Inten    --    14.8678                24.1093                29.0572

                    13                     14                     15
                     A                      A                      A
 Frequencies --  3172.0066              3195.1929              3784.1992
 Red. masses --     1.1075                 1.1073                 1.0688
 Frc consts  --     6.5657                 6.6604                 9.0176
 IR Inten    --    30.4018                12.7962               140.6082

 - Thermochemistry -
 -------------------
 Temperature   298.150 Kelvin.  Pressure   1.00000 Atm.
 Atom     1 has atomic number  6 and mass  12.00000

 Molecular mass:    48.02113 amu.
 Principal axes and moments of inertia in atomic units:
                           1         2         3
     Eigenvalues --    41.47022 171.12731 195.13062
           X            0.68598   0.64012  -0.34593
           Y            0.71291  -0.49620   0.49553
           Z           -0.14555   0.58654   0.79673
 This molecule is an asymmetric top.
 Rotational symmetry number  1.
 Rotational temperatures (Kelvin)      2.08858     0.50614     0.44388
 Rotational constants (GHZ):          43.51897    10.54619     9.24889
 Zero-point vibrational energy     146831.5 (Joules/Mol)
                                   35.09358 (Kcal/Mol)
 Warning -- explicit consideration of   3 degrees of freedom as
           vibrations may cause significant error
 Vibrational temperatures:    362.58   392.28   674.18  1347.04  1560.03
          (Kelvin)           1717.03  1774.84  2024.91  2105.72  2136.77
                             2176.45  4442.11  4563.80  4597.16  5444.61

 Zero-point correction=                           0.055925 (Hartree/Particle)
 Thermal correction to Energy=                    0.060074
 Thermal correction to Enthalpy=                  0.061018
 Thermal correction to Gibbs Free Energy=         0.030731
 Sum of electronic and zero-point Energies=           -190.832480
 Sum of electronic and thermal Energies=              -190.828332
 Sum of electronic and thermal Enthalpies=            -190.827388
 Sum of electronic and thermal Free Energies=         -190.857674

                     E (Thermal)             CV                S
                      KCal/Mol        Cal/Mol-Kelvin    Cal/Mol-Kelvin
 Total                   37.697             12.243             63.743
 Electronic               0.000              0.000              0.000
 Translational            0.889              2.981             37.532
 Rotational               0.889              2.981             21.854
 Vibrational             35.919              6.281              4.358
 Vibration     1          0.664              1.759              1.717
 Vibration     2          0.676              1.724              1.579
 Vibration     3          0.826              1.320              0.742

 Optimization completed.
    -- Stationary point found.
 Normal termination of Gaussian 09 at Mon Dec 13 17:18:44 2021.
